      -----------------------------------------------------------      
     |                   =====================                   |     
     |                           x T B                           |     
     |                   =====================                   |     
     |                         S. Grimme                         |     
     |          Mulliken Center for Theoretical Chemistry        |     
     |                    University of Bonn                     |     
      -----------------------------------------------------------      

   * xtb version 6.4.1 (unknown) compiled by 'software@adm6701' on 2022-02-17

   xtb is free software: you can redistribute it and/or modify it under
   the terms of the GNU Lesser General Public License as published by
   the Free Software Foundation, either version 3 of the License, or
   (at your option) any later version.
   
   xtb is distributed in the hope that it will be useful,
   but WITHOUT ANY WARRANTY; without even the implied warranty of
   MERCHANTABILITY or FITNESS FOR A PARTICULAR PURPOSE.  See the
   GNU Lesser General Public License for more details.
   
   Cite this work as:
   * C. Bannwarth, E. Caldeweyher, S. Ehlert, A. Hansen, P. Pracht,
     J. Seibert, S. Spicher, S. Grimme, WIREs Comput. Mol. Sci., 2020, 11,
     e01493. DOI: 10.1002/wcms.1493
   
   for GFN2-xTB:
   * C. Bannwarth, S. Ehlert and S. Grimme., J. Chem. Theory Comput., 2019,
     15, 1652-1671. DOI: 10.1021/acs.jctc.8b01176
   for GFN1-xTB:
   * S. Grimme, C. Bannwarth, P. Shushkov, J. Chem. Theory Comput., 2017,
     13, 1989-2009. DOI: 10.1021/acs.jctc.7b00118
   for GFN0-xTB:
   * P. Pracht, E. Caldeweyher, S. Ehlert, S. Grimme, ChemRxiv, 2019, preprint.
     DOI: 10.26434/chemrxiv.8326202.v1
   for GFN-FF:
   * S. Spicher and S. Grimme, Angew. Chem. Int. Ed., 2020, 59, 15665-15673.
     DOI: 10.1002/anie.202004239
   
   for DFT-D4:
   * E. Caldeweyher, C. Bannwarth and S. Grimme, J. Chem. Phys., 2017,
     147, 034112. DOI: 10.1063/1.4993215
   * E. Caldeweyher, S. Ehlert, A. Hansen, H. Neugebauer, S. Spicher,
     C. Bannwarth and S. Grimme, J. Chem. Phys., 2019, 150, 154122.
     DOI: 10.1063/1.5090222
   * E. Caldeweyher, J.-M. Mewes, S. Ehlert and S. Grimme, Phys. Chem. Chem. Phys.
     2020, 22, 8499-8512. DOI: 10.1039/D0CP00502A
   
   for sTDA-xTB:
   * S. Grimme and C. Bannwarth, J. Chem. Phys., 2016, 145, 054103.
     DOI: 10.1063/1.4959605
   
   in the mass-spec context:
   * V. Asgeirsson, C. Bauer and S. Grimme, Chem. Sci., 2017, 8, 4879.
     DOI: 10.1039/c7sc00601b
   * J. Koopman and S. Grimme, ACS Omega 2019, 4, 12, 15120-15133.
     DOI: 10.1021/acsomega.9b02011
   
   for metadynamics refer to:
   * S. Grimme, J. Chem. Theory Comput., 2019, 155, 2847-2862
     DOI: 10.1021/acs.jctc.9b00143
   
   for SPH calculations refer to:
   * S. Spicher and S. Grimme, J. Chem. Theory Comput., 2021, 17, 1701-1714
     DOI: 10.1021/acs.jctc.0c01306
   
   with help from (in alphabetical order)
   P. Atkinson, C. Bannwarth, F. Bohle, G. Brandenburg, E. Caldeweyher
   M. Checinski, S. Dohm, S. Ehlert, S. Ehrlich, I. Gerasimov, J. Koopman
   C. Lavigne, S. Lehtola, F. März, M. Müller, F. Musil, H. Neugebauer
   J. Pisarek, C. Plett, P. Pracht, J. Seibert, P. Shushkov, S. Spicher
   M. Stahn, M. Steiner, T. Strunk, J. Stückrath, T. Rose, and J. Unsleber
   
 * started run on 2023/05/01 at 20:57:29.060     

           -------------------------------------------------
          |                Calculation Setup                |
           -------------------------------------------------

          program call               : xtb /mnt/netapp1/Store_CSIC/home/csic/qoy/jar/test/QDESCP/mol_40_rdkit_conf_2/mol_40_rdkit_conf_2.xyz --pop --wbo --acc 0.2 --gfn 2 --chrg 0 --uhf 0 --etemp 300 --input /mnt/netapp1/Store_CSIC/home/csic/qoy/jar/test/QDESCP/mol_40_rdkit_conf_2/mol_40_rdkit_conf_2_xtb.inp
          hostname                   : login209-18
          coordinate file            : /mnt/netapp1/Store_CSIC/home/csic/qoy/jar/test/QDESCP/mol_40_rdkit_conf_2/mol_40_rdkit_conf_2.xyz
          omp threads                :                     1
          number of atoms            :                    23
          number of electrons        :                    50
          charge                     :                     0
          spin                       :                   0.0
          first test random number   :      0.52449788645949

   ID    Z sym.   atoms
    1    6 C      1-7
    2   53 I      8
    3    1 H      9-23

           -------------------------------------------------
          |                 G F N 2 - x T B                 |
           -------------------------------------------------

        Reference                      10.1021/acs.jctc.8b01176
      * Hamiltonian:
        H0-scaling (s, p, d)           1.850000    2.230000    2.230000
        zeta-weighting                 0.500000
      * Dispersion:
        s8                             2.700000
        a1                             0.520000
        a2                             5.000000
        s9                             5.000000
      * Repulsion:
        kExp                           1.500000    1.000000
        rExp                           1.000000
      * Coulomb:
        alpha                          2.000000
        third order                    shell-resolved
        anisotropic                    true
        a3                             3.000000
        a5                             4.000000
        cn-shift                       1.200000
        cn-exp                         4.000000
        max-rad                        5.000000


          ...................................................
          :                      SETUP                      :
          :.................................................:
          :  # basis functions                  53          :
          :  # atomic orbitals                  52          :
          :  # shells                           32          :
          :  # electrons                        50          :
          :  max. iterations                   250          :
          :  Hamiltonian                  GFN2-xTB          :
          :  restarted?                      false          :
          :  GBSA solvation                  false          :
          :  PC potential                    false          :
          :  electronic temp.          300.0000000     K    :
          :  accuracy                    0.2000000          :
          :  -> integral cutoff          0.3198970E+02      :
          :  -> integral neglect         0.2000000E-08      :
          :  -> SCF convergence          0.2000000E-06 Eh   :
          :  -> wf. convergence          0.2000000E-04 e    :
          :  Broyden damping             0.4000000          :
          ...................................................

 iter      E             dE          RMSdq      gap      omega  full diag
   1    -26.7002195 -0.267002E+02  0.523E+00    5.32       0.0  T
   2    -26.7495917 -0.493722E-01  0.324E+00    4.85       1.0  T
   3    -26.7484736  0.111817E-02  0.141E+00    5.05       1.0  T
   4    -26.7538955 -0.542193E-02  0.637E-01    4.83       1.0  T
   5    -26.7542659 -0.370397E-03  0.330E-01    4.87       1.0  T
   6    -26.7544328 -0.166938E-03  0.183E-01    4.82       1.0  T
   7    -26.7544924 -0.595861E-04  0.495E-02    4.82       1.0  T
   8    -26.7544965 -0.407172E-05  0.169E-02    4.82       1.2  T
   9    -26.7544967 -0.160658E-06  0.303E-03    4.82       6.9  T
  10    -26.7544967 -0.369271E-07  0.958E-04    4.82      21.8  T
  11    -26.7544967 -0.112148E-08  0.383E-04    4.82      54.5  T
  12    -26.7544967 -0.213888E-09  0.130E-04    4.82     160.2  T
  13    -26.7544967 -0.108074E-10  0.633E-05    4.82     329.3  T

   *** convergence criteria satisfied after 13 iterations ***

         #    Occupation            Energy/Eh            Energy/eV
      -------------------------------------------------------------
         1        2.0000           -0.7347039             -19.9923
       ...           ...                  ...                  ...
        19        2.0000           -0.4506033             -12.2615
        20        2.0000           -0.4475010             -12.1771
        21        2.0000           -0.4333212             -11.7913
        22        2.0000           -0.4313593             -11.7379
        23        2.0000           -0.4260851             -11.5944
        24        2.0000           -0.4046203             -11.0103
        25        2.0000           -0.4037996             -10.9879 (HOMO)
        26                         -0.2267958              -6.1714 (LUMO)
        27                          0.0169488               0.4612
        28                          0.0194298               0.5287
        29                          0.0276917               0.7535
        30                          0.0447863               1.2187
       ...                                ...                  ...
        52                          0.3877810              10.5521
      -------------------------------------------------------------
                  HL-Gap            0.1770038 Eh            4.8165 eV
             Fermi-level           -0.3152977 Eh           -8.5797 eV

 SCC (total)                   0 d,  0 h,  0 min,  0.073 sec
 SCC setup                      ...        0 min,  0.000 sec (  0.173%)
 Dispersion                     ...        0 min,  0.000 sec (  0.184%)
 classical contributions        ...        0 min,  0.000 sec (  0.041%)
 integral evaluation            ...        0 min,  0.061 sec ( 83.108%)
 iterations                     ...        0 min,  0.007 sec (  9.874%)
 molecular gradient             ...        0 min,  0.005 sec (  6.512%)
 printout                       ...        0 min,  0.000 sec (  0.086%)

         :::::::::::::::::::::::::::::::::::::::::::::::::::::
         ::                     SUMMARY                     ::
         :::::::::::::::::::::::::::::::::::::::::::::::::::::
         :: total energy             -26.454350832581 Eh    ::
         :: gradient norm              0.053047210932 Eh/a0 ::
         :: HOMO-LUMO gap              4.816517326714 eV    ::
         ::.................................................::
         :: SCC energy               -26.754496702458 Eh    ::
         :: -> isotropic ES            0.005465332442 Eh    ::
         :: -> anisotropic ES          0.006924295151 Eh    ::
         :: -> anisotropic XC          0.013608505474 Eh    ::
         :: -> dispersion             -0.015926673072 Eh    ::
         :: repulsion energy           0.300158862134 Eh    ::
         :: add. restraining           0.000000000000 Eh    ::
         :: total charge              -0.000000000000 e     ::
         :::::::::::::::::::::::::::::::::::::::::::::::::::::

           -------------------------------------------------
          |                Property Printout                |
           -------------------------------------------------

    * Orbital Energies and Occupations

         #    Occupation            Energy/Eh            Energy/eV
      -------------------------------------------------------------
         1        2.0000           -0.7347039             -19.9923
       ...           ...                  ...                  ...
        13        2.0000           -0.5011655             -13.6374
        14        2.0000           -0.4955669             -13.4851
        15        2.0000           -0.4782441             -13.0137
        16        2.0000           -0.4755580             -12.9406
        17        2.0000           -0.4714979             -12.8301
        18        2.0000           -0.4553997             -12.3921
        19        2.0000           -0.4506033             -12.2615
        20        2.0000           -0.4475010             -12.1771
        21        2.0000           -0.4333212             -11.7913
        22        2.0000           -0.4313593             -11.7379
        23        2.0000           -0.4260851             -11.5944
        24        2.0000           -0.4046203             -11.0103
        25        2.0000           -0.4037996             -10.9879 (HOMO)
        26                         -0.2267958              -6.1714 (LUMO)
        27                          0.0169488               0.4612
        28                          0.0194298               0.5287
        29                          0.0276917               0.7535
        30                          0.0447863               1.2187
        31                          0.0594142               1.6167
        32                          0.0672810               1.8308
        33                          0.0798235               2.1721
        34                          0.0888045               2.4165
        35                          0.0952672               2.5924
        36                          0.1020423               2.7767
       ...                                ...                  ...
        52                          0.3877810              10.5521
      -------------------------------------------------------------
                  HL-Gap            0.1770038 Eh            4.8165 eV
             Fermi-level           -0.3152977 Eh           -8.5797 eV

     #   Z          covCN         q      C6AA      α(0)
     1   6 C        3.741    -0.095    22.401     6.753
     2   6 C        3.792    -0.049    21.469     6.599
     3   6 C        3.793    -0.054    21.557     6.612
     4   6 C        3.793    -0.054    21.544     6.610
     5   6 C        3.794    -0.056    21.582     6.616
     6   6 C        3.941    -0.052    21.442     6.580
     7   6 C        3.776     0.006    20.496     6.450
     8  53 I        1.118    -0.149   383.050    33.786
     9   1 H        0.922     0.033     2.550     2.497
    10   1 H        0.922     0.033     2.543     2.494
    11   1 H        0.922     0.030     2.587     2.515
    12   1 H        0.921     0.027     2.636     2.539
    13   1 H        0.922     0.028     2.614     2.529
    14   1 H        0.921     0.030     2.593     2.518
    15   1 H        0.921     0.025     2.656     2.549
    16   1 H        0.922     0.035     2.518     2.482
    17   1 H        0.922     0.023     2.690     2.565
    18   1 H        0.921     0.029     2.601     2.522
    19   1 H        0.922     0.039     2.461     2.453
    20   1 H        0.921     0.039     2.462     2.454
    21   1 H        0.921     0.040     2.449     2.447
    22   1 H        0.927     0.046     2.365     2.405
    23   1 H        0.928     0.047     2.360     2.402

 Mol. C6AA /au·bohr⁶  :       5731.994985
 Mol. C8AA /au·bohr⁸  :     196916.157986
 Mol. α(0) /au        :        117.376228


Wiberg/Mayer (AO) data.
largest (>0.10) Wiberg bond orders for each atom

 ---------------------------------------------------------------------------
     #   Z sym  total        # sym  WBO       # sym  WBO       # sym  WBO
 ---------------------------------------------------------------------------
     1   6 C    3.997 --     2 C    1.021    11 H    0.987    10 H    0.987
                             9 H    0.986
     2   6 C    3.997 --     1 C    1.021     3 C    1.007    12 H    0.978
                            13 H    0.976
     3   6 C    3.996 --     2 C    1.007     4 C    1.007    15 H    0.977
                            14 H    0.977
     4   6 C    3.997 --     5 C    1.009     3 C    1.007    17 H    0.975
                            16 H    0.975
     5   6 C    3.996 --     4 C    1.009     6 C    0.999    18 H    0.975
                            19 H    0.973
     6   6 C    3.994 --     7 C    1.021     5 C    0.999    20 H    0.978
                            21 H    0.977
     7   6 C    3.964 --     6 C    1.021    22 H    0.981    23 H    0.980
                             8 I    0.963
     8  53 I    0.999 --     7 C    0.963
     9   1 H    0.999 --     1 C    0.986
    10   1 H    0.999 --     1 C    0.987
    11   1 H    0.999 --     1 C    0.987
    12   1 H    0.999 --     2 C    0.978
    13   1 H    0.999 --     2 C    0.976
    14   1 H    0.999 --     3 C    0.977
    15   1 H    0.999 --     3 C    0.977
    16   1 H    0.999 --     4 C    0.975
    17   1 H    0.999 --     4 C    0.975
    18   1 H    0.999 --     5 C    0.975
    19   1 H    0.998 --     5 C    0.973
    20   1 H    0.998 --     6 C    0.978
    21   1 H    0.998 --     6 C    0.977
    22   1 H    0.998 --     7 C    0.981
    23   1 H    0.998 --     7 C    0.980
 ---------------------------------------------------------------------------

Topologies differ in total number of bonds
Writing topology from bond orders to xtbtopo.mol

molecular dipole:
                 x           y           z       tot (Debye)
 q only:       -0.808      -0.136       0.204
   full:       -1.521      -0.353       0.561       4.217
molecular quadrupole (traceless):
                xx          xy          yy          xz          yz          zz
 q only:      -10.185      -1.749       5.265       3.557       0.179       4.920
  q+dip:      -25.356      -5.544      13.839      10.262       1.253      11.517
   full:      -23.430      -4.847      12.543       9.350       0.830      10.887


           -------------------------------------------------
          | TOTAL ENERGY              -26.454350832581 Eh   |
          | GRADIENT NORM               0.053047210932 Eh/α |
          | HOMO-LUMO GAP               4.816517326714 eV   |
           -------------------------------------------------

------------------------------------------------------------------------
 * finished run on 2023/05/01 at 20:57:29.162     
------------------------------------------------------------------------
 total:
 * wall-time:     0 d,  0 h,  0 min,  0.102 sec
 *  cpu-time:     0 d,  0 h,  0 min,  0.048 sec
 * ratio c/w:     0.467 speedup
 SCF:
 * wall-time:     0 d,  0 h,  0 min,  0.073 sec
 *  cpu-time:     0 d,  0 h,  0 min,  0.032 sec
 * ratio c/w:     0.436 speedup

