      -----------------------------------------------------------      
     |                   =====================                   |     
     |                           x T B                           |     
     |                   =====================                   |     
     |                         S. Grimme                         |     
     |          Mulliken Center for Theoretical Chemistry        |     
     |                    University of Bonn                     |     
      -----------------------------------------------------------      

   * xtb version 6.4.1 (unknown) compiled by 'software@adm6701' on 2022-02-17

   xtb is free software: you can redistribute it and/or modify it under
   the terms of the GNU Lesser General Public License as published by
   the Free Software Foundation, either version 3 of the License, or
   (at your option) any later version.
   
   xtb is distributed in the hope that it will be useful,
   but WITHOUT ANY WARRANTY; without even the implied warranty of
   MERCHANTABILITY or FITNESS FOR A PARTICULAR PURPOSE.  See the
   GNU Lesser General Public License for more details.
   
   Cite this work as:
   * C. Bannwarth, E. Caldeweyher, S. Ehlert, A. Hansen, P. Pracht,
     J. Seibert, S. Spicher, S. Grimme, WIREs Comput. Mol. Sci., 2020, 11,
     e01493. DOI: 10.1002/wcms.1493
   
   for GFN2-xTB:
   * C. Bannwarth, S. Ehlert and S. Grimme., J. Chem. Theory Comput., 2019,
     15, 1652-1671. DOI: 10.1021/acs.jctc.8b01176
   for GFN1-xTB:
   * S. Grimme, C. Bannwarth, P. Shushkov, J. Chem. Theory Comput., 2017,
     13, 1989-2009. DOI: 10.1021/acs.jctc.7b00118
   for GFN0-xTB:
   * P. Pracht, E. Caldeweyher, S. Ehlert, S. Grimme, ChemRxiv, 2019, preprint.
     DOI: 10.26434/chemrxiv.8326202.v1
   for GFN-FF:
   * S. Spicher and S. Grimme, Angew. Chem. Int. Ed., 2020, 59, 15665-15673.
     DOI: 10.1002/anie.202004239
   
   for DFT-D4:
   * E. Caldeweyher, C. Bannwarth and S. Grimme, J. Chem. Phys., 2017,
     147, 034112. DOI: 10.1063/1.4993215
   * E. Caldeweyher, S. Ehlert, A. Hansen, H. Neugebauer, S. Spicher,
     C. Bannwarth and S. Grimme, J. Chem. Phys., 2019, 150, 154122.
     DOI: 10.1063/1.5090222
   * E. Caldeweyher, J.-M. Mewes, S. Ehlert and S. Grimme, Phys. Chem. Chem. Phys.
     2020, 22, 8499-8512. DOI: 10.1039/D0CP00502A
   
   for sTDA-xTB:
   * S. Grimme and C. Bannwarth, J. Chem. Phys., 2016, 145, 054103.
     DOI: 10.1063/1.4959605
   
   in the mass-spec context:
   * V. Asgeirsson, C. Bauer and S. Grimme, Chem. Sci., 2017, 8, 4879.
     DOI: 10.1039/c7sc00601b
   * J. Koopman and S. Grimme, ACS Omega 2019, 4, 12, 15120-15133.
     DOI: 10.1021/acsomega.9b02011
   
   for metadynamics refer to:
   * S. Grimme, J. Chem. Theory Comput., 2019, 155, 2847-2862
     DOI: 10.1021/acs.jctc.9b00143
   
   for SPH calculations refer to:
   * S. Spicher and S. Grimme, J. Chem. Theory Comput., 2021, 17, 1701-1714
     DOI: 10.1021/acs.jctc.0c01306
   
   with help from (in alphabetical order)
   P. Atkinson, C. Bannwarth, F. Bohle, G. Brandenburg, E. Caldeweyher
   M. Checinski, S. Dohm, S. Ehlert, S. Ehrlich, I. Gerasimov, J. Koopman
   C. Lavigne, S. Lehtola, F. März, M. Müller, F. Musil, H. Neugebauer
   J. Pisarek, C. Plett, P. Pracht, J. Seibert, P. Shushkov, S. Spicher
   M. Stahn, M. Steiner, T. Strunk, J. Stückrath, T. Rose, and J. Unsleber
   
 * started run on 2023/05/01 at 20:57:35.717     

           -------------------------------------------------
          |                Calculation Setup                |
           -------------------------------------------------

          program call               : xtb /mnt/netapp1/Store_CSIC/home/csic/qoy/jar/test/QDESCP/mol_62_rdkit_conf_2/mol_62_rdkit_conf_2.xyz --pop --wbo --acc 0.2 --gfn 2 --chrg 0 --uhf 0 --etemp 300 --input /mnt/netapp1/Store_CSIC/home/csic/qoy/jar/test/QDESCP/mol_62_rdkit_conf_2/mol_62_rdkit_conf_2_xtb.inp
          hostname                   : login209-18
          coordinate file            : /mnt/netapp1/Store_CSIC/home/csic/qoy/jar/test/QDESCP/mol_62_rdkit_conf_2/mol_62_rdkit_conf_2.xyz
          omp threads                :                     1
          number of atoms            :                    20
          number of electrons        :                    48
          charge                     :                     0
          spin                       :                   0.0
          first test random number   :      0.40988507440324

   ID    Z sym.   atoms
    1    6 C      1-3, 5, 7, 8
    2    8 O      4, 6
    3    1 H      9-20

           -------------------------------------------------
          |                 G F N 2 - x T B                 |
           -------------------------------------------------

        Reference                      10.1021/acs.jctc.8b01176
      * Hamiltonian:
        H0-scaling (s, p, d)           1.850000    2.230000    2.230000
        zeta-weighting                 0.500000
      * Dispersion:
        s8                             2.700000
        a1                             0.520000
        a2                             5.000000
        s9                             5.000000
      * Repulsion:
        kExp                           1.500000    1.000000
        rExp                           1.000000
      * Coulomb:
        alpha                          2.000000
        third order                    shell-resolved
        anisotropic                    true
        a3                             3.000000
        a5                             4.000000
        cn-shift                       1.200000
        cn-exp                         4.000000
        max-rad                        5.000000


          ...................................................
          :                      SETUP                      :
          :.................................................:
          :  # basis functions                  44          :
          :  # atomic orbitals                  44          :
          :  # shells                           28          :
          :  # electrons                        48          :
          :  max. iterations                   250          :
          :  Hamiltonian                  GFN2-xTB          :
          :  restarted?                      false          :
          :  GBSA solvation                  false          :
          :  PC potential                    false          :
          :  electronic temp.          300.0000000     K    :
          :  accuracy                    0.2000000          :
          :  -> integral cutoff          0.3198970E+02      :
          :  -> integral neglect         0.2000000E-08      :
          :  -> SCF convergence          0.2000000E-06 Eh   :
          :  -> wf. convergence          0.2000000E-04 e    :
          :  Broyden damping             0.4000000          :
          ...................................................

 iter      E             dE          RMSdq      gap      omega  full diag
   1    -27.3396075 -0.273396E+02  0.368E+00    5.67       0.0  T
   2    -27.4081445 -0.685370E-01  0.188E+00    4.46       1.0  T
   3    -27.4124340 -0.428942E-02  0.111E+00    4.98       1.0  T
   4    -27.4152494 -0.281542E-02  0.188E-01    4.68       1.0  T
   5    -27.4155376 -0.288254E-03  0.684E-02    4.74       1.0  T
   6    -27.4155425 -0.487664E-05  0.206E-02    4.74       1.1  T
   7    -27.4155432 -0.670138E-06  0.696E-03    4.74       3.2  T
   8    -27.4155433 -0.130204E-06  0.196E-03    4.74      11.4  T
   9    -27.4155433 -0.724870E-08  0.978E-04    4.74      22.9  T
  10    -27.4155433 -0.255847E-08  0.218E-04    4.74     102.5  T
  11    -27.4155433 -0.119638E-09  0.903E-05    4.74     247.6  T
  12    -27.4155433 -0.954614E-11  0.176E-05    4.74    1271.3  T

   *** convergence criteria satisfied after 12 iterations ***

         #    Occupation            Energy/Eh            Energy/eV
      -------------------------------------------------------------
         1        2.0000           -0.7356252             -20.0174
       ...           ...                  ...                  ...
        18        2.0000           -0.4688039             -12.7568
        19        2.0000           -0.4666841             -12.6991
        20        2.0000           -0.4500848             -12.2474
        21        2.0000           -0.4481239             -12.1941
        22        2.0000           -0.4416605             -12.0182
        23        2.0000           -0.4359208             -11.8620
        24        2.0000           -0.4116877             -11.2026 (HOMO)
        25                         -0.2374393              -6.4611 (LUMO)
        26                          0.0019108               0.0520
        27                          0.0856442               2.3305
        28                          0.1025974               2.7918
        29                          0.1202704               3.2727
       ...                                ...                  ...
        44                          0.5934548              16.1487
      -------------------------------------------------------------
                  HL-Gap            0.1742485 Eh            4.7415 eV
             Fermi-level           -0.3245635 Eh           -8.8318 eV

 SCC (total)                   0 d,  0 h,  0 min,  0.081 sec
 SCC setup                      ...        0 min,  0.000 sec (  0.143%)
 Dispersion                     ...        0 min,  0.000 sec (  0.131%)
 classical contributions        ...        0 min,  0.000 sec (  0.031%)
 integral evaluation            ...        0 min,  0.002 sec (  1.939%)
 iterations                     ...        0 min,  0.075 sec ( 92.686%)
 molecular gradient             ...        0 min,  0.004 sec (  4.975%)
 printout                       ...        0 min,  0.000 sec (  0.079%)

         :::::::::::::::::::::::::::::::::::::::::::::::::::::
         ::                     SUMMARY                     ::
         :::::::::::::::::::::::::::::::::::::::::::::::::::::
         :: total energy             -27.112952610088 Eh    ::
         :: gradient norm              0.053776244425 Eh/a0 ::
         :: HOMO-LUMO gap              4.741542902354 eV    ::
         ::.................................................::
         :: SCC energy               -27.415543321695 Eh    ::
         :: -> isotropic ES            0.046122844265 Eh    ::
         :: -> anisotropic ES          0.003901053036 Eh    ::
         :: -> anisotropic XC          0.008239428392 Eh    ::
         :: -> dispersion             -0.011775783290 Eh    ::
         :: repulsion energy           0.302552745549 Eh    ::
         :: add. restraining           0.000000000000 Eh    ::
         :: total charge               0.000000000000 e     ::
         :::::::::::::::::::::::::::::::::::::::::::::::::::::

           -------------------------------------------------
          |                Property Printout                |
           -------------------------------------------------

    * Orbital Energies and Occupations

         #    Occupation            Energy/Eh            Energy/eV
      -------------------------------------------------------------
         1        2.0000           -0.7356252             -20.0174
       ...           ...                  ...                  ...
        12        2.0000           -0.5199207             -14.1478
        13        2.0000           -0.5144513             -13.9989
        14        2.0000           -0.5084278             -13.8350
        15        2.0000           -0.4953789             -13.4799
        16        2.0000           -0.4869207             -13.2498
        17        2.0000           -0.4808132             -13.0836
        18        2.0000           -0.4688039             -12.7568
        19        2.0000           -0.4666841             -12.6991
        20        2.0000           -0.4500848             -12.2474
        21        2.0000           -0.4481239             -12.1941
        22        2.0000           -0.4416605             -12.0182
        23        2.0000           -0.4359208             -11.8620
        24        2.0000           -0.4116877             -11.2026 (HOMO)
        25                         -0.2374393              -6.4611 (LUMO)
        26                          0.0019108               0.0520
        27                          0.0856442               2.3305
        28                          0.1025974               2.7918
        29                          0.1202704               3.2727
        30                          0.1238573               3.3703
        31                          0.1271794               3.4607
        32                          0.1417181               3.8563
        33                          0.1442983               3.9266
        34                          0.1579515               4.2981
        35                          0.1701436               4.6298
       ...                                ...                  ...
        44                          0.5934548              16.1487
      -------------------------------------------------------------
                  HL-Gap            0.1742485 Eh            4.7415 eV
             Fermi-level           -0.3245635 Eh           -8.8318 eV

     #   Z          covCN         q      C6AA      α(0)
     1   6 C        3.750    -0.102    22.504     6.766
     2   6 C        3.798    -0.058    21.627     6.622
     3   6 C        3.696     0.077    19.463     6.311
     4   8 O        1.702    -0.265    18.392     5.790
     5   6 C        2.714     0.354    20.995     7.500
     6   8 O        0.856    -0.410    21.875     6.271
     7   6 C        3.802    -0.081    22.045     6.685
     8   6 C        3.752    -0.097    22.412     6.751
     9   1 H        0.924     0.042     2.420     2.433
    10   1 H        0.924     0.038     2.474     2.460
    11   1 H        0.924     0.038     2.481     2.463
    12   1 H        0.924     0.052     2.295     2.369
    13   1 H        0.924     0.041     2.436     2.441
    14   1 H        0.924     0.053     2.287     2.365
    15   1 H        0.924     0.052     2.294     2.368
    16   1 H        0.924     0.064     2.158     2.297
    17   1 H        0.924     0.060     2.196     2.318
    18   1 H        0.924     0.047     2.354     2.399
    19   1 H        0.924     0.047     2.361     2.403
    20   1 H        0.924     0.048     2.339     2.392

 Mol. C6AA /au·bohr⁶  :       3025.071208
 Mol. C8AA /au·bohr⁸  :      64069.300024
 Mol. α(0) /au        :         81.402074


Wiberg/Mayer (AO) data.
largest (>0.10) Wiberg bond orders for each atom

 ---------------------------------------------------------------------------
     #   Z sym  total        # sym  WBO       # sym  WBO       # sym  WBO
 ---------------------------------------------------------------------------
     1   6 C    3.996 --     2 C    1.021    11 H    0.987     9 H    0.987
                            10 H    0.987
     2   6 C    3.994 --     1 C    1.021     3 C    1.000    12 H    0.975
                            13 H    0.975
     3   6 C    3.930 --     2 C    1.000    14 H    0.971    15 H    0.969
                             4 O    0.944
     4   8 O    2.304 --     5 C    1.126     3 C    0.944     6 O    0.173
     5   6 C    3.915 --     6 O    1.757     4 O    1.126     7 C    0.976
     6   8 O    2.035 --     5 C    1.757     4 O    0.173
     7   6 C    3.994 --     8 C    1.000     5 C    0.976    16 H    0.972
                            17 H    0.965
     8   6 C    3.992 --     7 C    1.000    19 H    0.987    18 H    0.986
                            20 H    0.984
     9   1 H    0.998 --     1 C    0.987
    10   1 H    0.999 --     1 C    0.987
    11   1 H    0.999 --     1 C    0.987
    12   1 H    0.997 --     2 C    0.975
    13   1 H    0.998 --     2 C    0.975
    14   1 H    0.997 --     3 C    0.971
    15   1 H    0.997 --     3 C    0.969
    16   1 H    0.996 --     7 C    0.972
    17   1 H    0.996 --     7 C    0.965
    18   1 H    0.998 --     8 C    0.986
    19   1 H    0.998 --     8 C    0.987
    20   1 H    0.997 --     8 C    0.984
 ---------------------------------------------------------------------------

Topologies differ in total number of bonds
Writing topology from bond orders to xtbtopo.mol

molecular dipole:
                 x           y           z       tot (Debye)
 q only:       -0.208       0.645       0.477
   full:       -0.215       0.724       0.491       2.290
molecular quadrupole (traceless):
                xx          xy          yy          xz          yz          zz
 q only:        4.891       1.039      -4.429       4.532      -4.329      -0.462
  q+dip:        4.105       0.983      -4.072       4.365      -5.439      -0.034
   full:        4.673       1.503      -4.524       4.181      -5.775      -0.148


           -------------------------------------------------
          | TOTAL ENERGY              -27.112952610088 Eh   |
          | GRADIENT NORM               0.053776244425 Eh/α |
          | HOMO-LUMO GAP               4.741542902354 eV   |
           -------------------------------------------------

------------------------------------------------------------------------
 * finished run on 2023/05/01 at 20:57:35.822     
------------------------------------------------------------------------
 total:
 * wall-time:     0 d,  0 h,  0 min,  0.105 sec
 *  cpu-time:     0 d,  0 h,  0 min,  0.042 sec
 * ratio c/w:     0.404 speedup
 SCF:
 * wall-time:     0 d,  0 h,  0 min,  0.081 sec
 *  cpu-time:     0 d,  0 h,  0 min,  0.029 sec
 * ratio c/w:     0.353 speedup

