      -----------------------------------------------------------      
     |                   =====================                   |     
     |                           x T B                           |     
     |                   =====================                   |     
     |                         S. Grimme                         |     
     |          Mulliken Center for Theoretical Chemistry        |     
     |                    University of Bonn                     |     
      -----------------------------------------------------------      

   * xtb version 6.4.1 (unknown) compiled by 'software@adm6701' on 2022-02-17

   xtb is free software: you can redistribute it and/or modify it under
   the terms of the GNU Lesser General Public License as published by
   the Free Software Foundation, either version 3 of the License, or
   (at your option) any later version.
   
   xtb is distributed in the hope that it will be useful,
   but WITHOUT ANY WARRANTY; without even the implied warranty of
   MERCHANTABILITY or FITNESS FOR A PARTICULAR PURPOSE.  See the
   GNU Lesser General Public License for more details.
   
   Cite this work as:
   * C. Bannwarth, E. Caldeweyher, S. Ehlert, A. Hansen, P. Pracht,
     J. Seibert, S. Spicher, S. Grimme, WIREs Comput. Mol. Sci., 2020, 11,
     e01493. DOI: 10.1002/wcms.1493
   
   for GFN2-xTB:
   * C. Bannwarth, S. Ehlert and S. Grimme., J. Chem. Theory Comput., 2019,
     15, 1652-1671. DOI: 10.1021/acs.jctc.8b01176
   for GFN1-xTB:
   * S. Grimme, C. Bannwarth, P. Shushkov, J. Chem. Theory Comput., 2017,
     13, 1989-2009. DOI: 10.1021/acs.jctc.7b00118
   for GFN0-xTB:
   * P. Pracht, E. Caldeweyher, S. Ehlert, S. Grimme, ChemRxiv, 2019, preprint.
     DOI: 10.26434/chemrxiv.8326202.v1
   for GFN-FF:
   * S. Spicher and S. Grimme, Angew. Chem. Int. Ed., 2020, 59, 15665-15673.
     DOI: 10.1002/anie.202004239
   
   for DFT-D4:
   * E. Caldeweyher, C. Bannwarth and S. Grimme, J. Chem. Phys., 2017,
     147, 034112. DOI: 10.1063/1.4993215
   * E. Caldeweyher, S. Ehlert, A. Hansen, H. Neugebauer, S. Spicher,
     C. Bannwarth and S. Grimme, J. Chem. Phys., 2019, 150, 154122.
     DOI: 10.1063/1.5090222
   * E. Caldeweyher, J.-M. Mewes, S. Ehlert and S. Grimme, Phys. Chem. Chem. Phys.
     2020, 22, 8499-8512. DOI: 10.1039/D0CP00502A
   
   for sTDA-xTB:
   * S. Grimme and C. Bannwarth, J. Chem. Phys., 2016, 145, 054103.
     DOI: 10.1063/1.4959605
   
   in the mass-spec context:
   * V. Asgeirsson, C. Bauer and S. Grimme, Chem. Sci., 2017, 8, 4879.
     DOI: 10.1039/c7sc00601b
   * J. Koopman and S. Grimme, ACS Omega 2019, 4, 12, 15120-15133.
     DOI: 10.1021/acsomega.9b02011
   
   for metadynamics refer to:
   * S. Grimme, J. Chem. Theory Comput., 2019, 155, 2847-2862
     DOI: 10.1021/acs.jctc.9b00143
   
   for SPH calculations refer to:
   * S. Spicher and S. Grimme, J. Chem. Theory Comput., 2021, 17, 1701-1714
     DOI: 10.1021/acs.jctc.0c01306
   
   with help from (in alphabetical order)
   P. Atkinson, C. Bannwarth, F. Bohle, G. Brandenburg, E. Caldeweyher
   M. Checinski, S. Dohm, S. Ehlert, S. Ehrlich, I. Gerasimov, J. Koopman
   C. Lavigne, S. Lehtola, F. März, M. Müller, F. Musil, H. Neugebauer
   J. Pisarek, C. Plett, P. Pracht, J. Seibert, P. Shushkov, S. Spicher
   M. Stahn, M. Steiner, T. Strunk, J. Stückrath, T. Rose, and J. Unsleber
   
 * started run on 2023/05/01 at 20:57:29.612     

           -------------------------------------------------
          |                Calculation Setup                |
           -------------------------------------------------

          program call               : xtb /mnt/netapp1/Store_CSIC/home/csic/qoy/jar/test/QDESCP/mol_42_rdkit_conf_1/mol_42_rdkit_conf_1.xyz --pop --wbo --acc 0.2 --gfn 2 --chrg 0 --uhf 0 --etemp 300 --input /mnt/netapp1/Store_CSIC/home/csic/qoy/jar/test/QDESCP/mol_42_rdkit_conf_1/mol_42_rdkit_conf_1_xtb.inp
          hostname                   : login209-18
          coordinate file            : /mnt/netapp1/Store_CSIC/home/csic/qoy/jar/test/QDESCP/mol_42_rdkit_conf_1/mol_42_rdkit_conf_1.xyz
          omp threads                :                     1
          number of atoms            :                    16
          number of electrons        :                    36
          charge                     :                     0
          spin                       :                   0.0
          first test random number   :      0.92663263052877

   ID    Z sym.   atoms
    1    8 O      1
    2    6 C      2-6
    3    1 H      7-16

           -------------------------------------------------
          |                 G F N 2 - x T B                 |
           -------------------------------------------------

        Reference                      10.1021/acs.jctc.8b01176
      * Hamiltonian:
        H0-scaling (s, p, d)           1.850000    2.230000    2.230000
        zeta-weighting                 0.500000
      * Dispersion:
        s8                             2.700000
        a1                             0.520000
        a2                             5.000000
        s9                             5.000000
      * Repulsion:
        kExp                           1.500000    1.000000
        rExp                           1.000000
      * Coulomb:
        alpha                          2.000000
        third order                    shell-resolved
        anisotropic                    true
        a3                             3.000000
        a5                             4.000000
        cn-shift                       1.200000
        cn-exp                         4.000000
        max-rad                        5.000000


          ...................................................
          :                      SETUP                      :
          :.................................................:
          :  # basis functions                  34          :
          :  # atomic orbitals                  34          :
          :  # shells                           22          :
          :  # electrons                        36          :
          :  max. iterations                   250          :
          :  Hamiltonian                  GFN2-xTB          :
          :  restarted?                      false          :
          :  GBSA solvation                  false          :
          :  PC potential                    false          :
          :  electronic temp.          300.0000000     K    :
          :  accuracy                    0.2000000          :
          :  -> integral cutoff          0.3198970E+02      :
          :  -> integral neglect         0.2000000E-08      :
          :  -> SCF convergence          0.2000000E-06 Eh   :
          :  -> wf. convergence          0.2000000E-04 e    :
          :  Broyden damping             0.4000000          :
          ...................................................

 iter      E             dE          RMSdq      gap      omega  full diag
   1    -20.0503773 -0.200504E+02  0.403E+00    5.29       0.0  T
   2    -20.0833864 -0.330091E-01  0.234E+00    5.19       1.0  T
   3    -20.0781395  0.524688E-02  0.111E+00    5.16       1.0  T
   4    -20.0830432 -0.490371E-02  0.566E-01    5.16       1.0  T
   5    -20.0862951 -0.325193E-02  0.827E-02    5.19       1.0  T
   6    -20.0863096 -0.144274E-04  0.444E-02    5.19       1.0  T
   7    -20.0863107 -0.113745E-05  0.741E-03    5.19       3.4  T
   8    -20.0863109 -0.195950E-06  0.315E-03    5.19       7.9  T
   9    -20.0863109 -0.493258E-08  0.474E-04    5.19      52.8  T
  10    -20.0863109 -0.762434E-09  0.186E-04    5.19     134.1  T
  11    -20.0863109 -0.123936E-09  0.505E-05    5.19     495.1  T

   *** convergence criteria satisfied after 11 iterations ***

         #    Occupation            Energy/Eh            Energy/eV
      -------------------------------------------------------------
         1        2.0000           -0.6855504             -18.6548
       ...           ...                  ...                  ...
        12        2.0000           -0.4699133             -12.7870
        13        2.0000           -0.4642892             -12.6340
        14        2.0000           -0.4566093             -12.4250
        15        2.0000           -0.4351172             -11.8401
        16        2.0000           -0.4311396             -11.7319
        17        2.0000           -0.4127348             -11.2311
        18        2.0000           -0.4003296             -10.8935 (HOMO)
        19                         -0.2096817              -5.7057 (LUMO)
        20                          0.0352764               0.9599
        21                          0.0801678               2.1815
        22                          0.1039159               2.8277
        23                          0.1225356               3.3344
       ...                                ...                  ...
        34                          0.5648930              15.3715
      -------------------------------------------------------------
                  HL-Gap            0.1906479 Eh            5.1878 eV
             Fermi-level           -0.3050057 Eh           -8.2996 eV

 SCC (total)                   0 d,  0 h,  0 min,  0.076 sec
 SCC setup                      ...        0 min,  0.000 sec (  0.133%)
 Dispersion                     ...        0 min,  0.000 sec (  0.100%)
 classical contributions        ...        0 min,  0.000 sec (  0.026%)
 integral evaluation            ...        0 min,  0.001 sec (  1.237%)
 iterations                     ...        0 min,  0.072 sec ( 94.873%)
 molecular gradient             ...        0 min,  0.003 sec (  3.530%)
 printout                       ...        0 min,  0.000 sec (  0.084%)

         :::::::::::::::::::::::::::::::::::::::::::::::::::::
         ::                     SUMMARY                     ::
         :::::::::::::::::::::::::::::::::::::::::::::::::::::
         :: total energy             -19.826458477398 Eh    ::
         :: gradient norm              0.035407636193 Eh/a0 ::
         :: HOMO-LUMO gap              5.187793357444 eV    ::
         ::.................................................::
         :: SCC energy               -20.086310889958 Eh    ::
         :: -> isotropic ES            0.026978990168 Eh    ::
         :: -> anisotropic ES          0.003986836885 Eh    ::
         :: -> anisotropic XC          0.009603497497 Eh    ::
         :: -> dispersion             -0.008263167670 Eh    ::
         :: repulsion energy           0.259851058184 Eh    ::
         :: add. restraining           0.000000000000 Eh    ::
         :: total charge              -0.000000000000 e     ::
         :::::::::::::::::::::::::::::::::::::::::::::::::::::

           -------------------------------------------------
          |                Property Printout                |
           -------------------------------------------------

    * Orbital Energies and Occupations

         #    Occupation            Energy/Eh            Energy/eV
      -------------------------------------------------------------
         1        2.0000           -0.6855504             -18.6548
       ...           ...                  ...                  ...
         6        2.0000           -0.5597156             -15.2306
         7        2.0000           -0.5462095             -14.8631
         8        2.0000           -0.5299393             -14.4204
         9        2.0000           -0.5192621             -14.1298
        10        2.0000           -0.5046034             -13.7310
        11        2.0000           -0.4960141             -13.4972
        12        2.0000           -0.4699133             -12.7870
        13        2.0000           -0.4642892             -12.6340
        14        2.0000           -0.4566093             -12.4250
        15        2.0000           -0.4351172             -11.8401
        16        2.0000           -0.4311396             -11.7319
        17        2.0000           -0.4127348             -11.2311
        18        2.0000           -0.4003296             -10.8935 (HOMO)
        19                         -0.2096817              -5.7057 (LUMO)
        20                          0.0352764               0.9599
        21                          0.0801678               2.1815
        22                          0.1039159               2.8277
        23                          0.1225356               3.3344
        24                          0.1354845               3.6867
        25                          0.1400416               3.8107
        26                          0.1617944               4.4026
        27                          0.1703504               4.6355
        28                          0.1820924               4.9550
        29                          0.2162624               5.8848
       ...                                ...                  ...
        34                          0.5648930              15.3715
      -------------------------------------------------------------
                  HL-Gap            0.1906479 Eh            5.1878 eV
             Fermi-level           -0.3050057 Eh           -8.2996 eV

     #   Z          covCN         q      C6AA      α(0)
     1   8 O        1.653    -0.445    21.751     6.296
     2   6 C        3.675     0.079    19.490     6.326
     3   6 C        3.802    -0.064    21.732     6.637
     4   6 C        3.805    -0.060    21.644     6.623
     5   6 C        2.886    -0.029    28.731     8.788
     6   6 C        2.834    -0.095    30.383     9.033
     7   1 H        0.804     0.286     0.766     1.375
     8   1 H        0.924     0.020     2.740     2.588
     9   1 H        0.924     0.048     2.344     2.394
    10   1 H        0.924     0.046     2.368     2.407
    11   1 H        0.924     0.031     2.575     2.509
    12   1 H        0.924     0.041     2.434     2.440
    13   1 H        0.924     0.038     2.482     2.464
    14   1 H        0.925     0.034     2.530     2.487
    15   1 H        0.925     0.035     2.510     2.477
    16   1 H        0.925     0.037     2.493     2.469

 Mol. C6AA /au·bohr⁶  :       1958.743518
 Mol. C8AA /au·bohr⁸  :      42139.672436
 Mol. α(0) /au        :         67.313233


Wiberg/Mayer (AO) data.
largest (>0.10) Wiberg bond orders for each atom

 ---------------------------------------------------------------------------
     #   Z sym  total        # sym  WBO       # sym  WBO       # sym  WBO
 ---------------------------------------------------------------------------
     1   8 O    1.950 --     2 C    0.994     7 H    0.904
     2   6 C    3.956 --     3 C    1.000     1 O    0.994     9 H    0.973
                             8 H    0.973
     3   6 C    3.995 --     2 C    1.000     4 C    0.992    10 H    0.976
                            11 H    0.975
     4   6 C    3.997 --     5 C    1.026     3 C    0.992    13 H    0.974
                            12 H    0.962
     5   6 C    3.990 --     6 C    1.976     4 C    1.026    14 H    0.968
     6   6 C    3.989 --     5 C    1.976    15 H    0.978    16 H    0.977
     7   1 H    0.918 --     1 O    0.904
     8   1 H    1.000 --     2 C    0.973
     9   1 H    0.998 --     2 C    0.973
    10   1 H    0.998 --     3 C    0.976
    11   1 H    0.999 --     3 C    0.975
    12   1 H    0.998 --     4 C    0.962
    13   1 H    0.999 --     4 C    0.974
    14   1 H    0.999 --     5 C    0.968
    15   1 H    0.998 --     6 C    0.978
    16   1 H    0.999 --     6 C    0.977
 ---------------------------------------------------------------------------

Topologies differ in total number of bonds
Writing topology from bond orders to xtbtopo.mol

molecular dipole:
                 x           y           z       tot (Debye)
 q only:        0.330      -0.007      -0.355
   full:        0.415       0.039      -0.525       1.704
molecular quadrupole (traceless):
                xx          xy          yy          xz          yz          zz
 q only:       -4.056       0.356       3.695       4.284      -1.483       0.361
  q+dip:       -5.976       1.762       3.545       6.459      -2.107       2.430
   full:       -5.793       0.917       4.524       6.315      -2.246       1.269


           -------------------------------------------------
          | TOTAL ENERGY              -19.826458477398 Eh   |
          | GRADIENT NORM               0.035407636193 Eh/α |
          | HOMO-LUMO GAP               5.187793357444 eV   |
           -------------------------------------------------

------------------------------------------------------------------------
 * finished run on 2023/05/01 at 20:57:29.713     
------------------------------------------------------------------------
 total:
 * wall-time:     0 d,  0 h,  0 min,  0.101 sec
 *  cpu-time:     0 d,  0 h,  0 min,  0.034 sec
 * ratio c/w:     0.339 speedup
 SCF:
 * wall-time:     0 d,  0 h,  0 min,  0.076 sec
 *  cpu-time:     0 d,  0 h,  0 min,  0.020 sec
 * ratio c/w:     0.262 speedup

