      -----------------------------------------------------------      
     |                   =====================                   |     
     |                           x T B                           |     
     |                   =====================                   |     
     |                         S. Grimme                         |     
     |          Mulliken Center for Theoretical Chemistry        |     
     |                    University of Bonn                     |     
      -----------------------------------------------------------      

   * xtb version 6.4.1 (unknown) compiled by 'software@adm6701' on 2022-02-17

   xtb is free software: you can redistribute it and/or modify it under
   the terms of the GNU Lesser General Public License as published by
   the Free Software Foundation, either version 3 of the License, or
   (at your option) any later version.
   
   xtb is distributed in the hope that it will be useful,
   but WITHOUT ANY WARRANTY; without even the implied warranty of
   MERCHANTABILITY or FITNESS FOR A PARTICULAR PURPOSE.  See the
   GNU Lesser General Public License for more details.
   
   Cite this work as:
   * C. Bannwarth, E. Caldeweyher, S. Ehlert, A. Hansen, P. Pracht,
     J. Seibert, S. Spicher, S. Grimme, WIREs Comput. Mol. Sci., 2020, 11,
     e01493. DOI: 10.1002/wcms.1493
   
   for GFN2-xTB:
   * C. Bannwarth, S. Ehlert and S. Grimme., J. Chem. Theory Comput., 2019,
     15, 1652-1671. DOI: 10.1021/acs.jctc.8b01176
   for GFN1-xTB:
   * S. Grimme, C. Bannwarth, P. Shushkov, J. Chem. Theory Comput., 2017,
     13, 1989-2009. DOI: 10.1021/acs.jctc.7b00118
   for GFN0-xTB:
   * P. Pracht, E. Caldeweyher, S. Ehlert, S. Grimme, ChemRxiv, 2019, preprint.
     DOI: 10.26434/chemrxiv.8326202.v1
   for GFN-FF:
   * S. Spicher and S. Grimme, Angew. Chem. Int. Ed., 2020, 59, 15665-15673.
     DOI: 10.1002/anie.202004239
   
   for DFT-D4:
   * E. Caldeweyher, C. Bannwarth and S. Grimme, J. Chem. Phys., 2017,
     147, 034112. DOI: 10.1063/1.4993215
   * E. Caldeweyher, S. Ehlert, A. Hansen, H. Neugebauer, S. Spicher,
     C. Bannwarth and S. Grimme, J. Chem. Phys., 2019, 150, 154122.
     DOI: 10.1063/1.5090222
   * E. Caldeweyher, J.-M. Mewes, S. Ehlert and S. Grimme, Phys. Chem. Chem. Phys.
     2020, 22, 8499-8512. DOI: 10.1039/D0CP00502A
   
   for sTDA-xTB:
   * S. Grimme and C. Bannwarth, J. Chem. Phys., 2016, 145, 054103.
     DOI: 10.1063/1.4959605
   
   in the mass-spec context:
   * V. Asgeirsson, C. Bauer and S. Grimme, Chem. Sci., 2017, 8, 4879.
     DOI: 10.1039/c7sc00601b
   * J. Koopman and S. Grimme, ACS Omega 2019, 4, 12, 15120-15133.
     DOI: 10.1021/acsomega.9b02011
   
   for metadynamics refer to:
   * S. Grimme, J. Chem. Theory Comput., 2019, 155, 2847-2862
     DOI: 10.1021/acs.jctc.9b00143
   
   for SPH calculations refer to:
   * S. Spicher and S. Grimme, J. Chem. Theory Comput., 2021, 17, 1701-1714
     DOI: 10.1021/acs.jctc.0c01306
   
   with help from (in alphabetical order)
   P. Atkinson, C. Bannwarth, F. Bohle, G. Brandenburg, E. Caldeweyher
   M. Checinski, S. Dohm, S. Ehlert, S. Ehrlich, I. Gerasimov, J. Koopman
   C. Lavigne, S. Lehtola, F. März, M. Müller, F. Musil, H. Neugebauer
   J. Pisarek, C. Plett, P. Pracht, J. Seibert, P. Shushkov, S. Spicher
   M. Stahn, M. Steiner, T. Strunk, J. Stückrath, T. Rose, and J. Unsleber
   
 * started run on 2023/05/01 at 20:57:15.493     

           -------------------------------------------------
          |                Calculation Setup                |
           -------------------------------------------------

          program call               : xtb /mnt/netapp1/Store_CSIC/home/csic/qoy/jar/test/QDESCP/mol_13_rdkit_conf_2/mol_13_rdkit_conf_2.xyz --pop --wbo --acc 0.2 --gfn 2 --chrg 0 --uhf 0 --etemp 300 --input /mnt/netapp1/Store_CSIC/home/csic/qoy/jar/test/QDESCP/mol_13_rdkit_conf_2/mol_13_rdkit_conf_2_xtb.inp
          hostname                   : login209-18
          coordinate file            : /mnt/netapp1/Store_CSIC/home/csic/qoy/jar/test/QDESCP/mol_13_rdkit_conf_2/mol_13_rdkit_conf_2.xyz
          omp threads                :                     1
          number of atoms            :                    15
          number of electrons        :                    30
          charge                     :                     0
          spin                       :                   0.0
          first test random number   :      0.00198946807957

   ID    Z sym.   atoms
    1    6 C      1-5
    2    1 H      6-15

           -------------------------------------------------
          |                 G F N 2 - x T B                 |
           -------------------------------------------------

        Reference                      10.1021/acs.jctc.8b01176
      * Hamiltonian:
        H0-scaling (s, p, d)           1.850000    2.230000    2.230000
        zeta-weighting                 0.500000
      * Dispersion:
        s8                             2.700000
        a1                             0.520000
        a2                             5.000000
        s9                             5.000000
      * Repulsion:
        kExp                           1.500000    1.000000
        rExp                           1.000000
      * Coulomb:
        alpha                          2.000000
        third order                    shell-resolved
        anisotropic                    true
        a3                             3.000000
        a5                             4.000000
        cn-shift                       1.200000
        cn-exp                         4.000000
        max-rad                        5.000000


          ...................................................
          :                      SETUP                      :
          :.................................................:
          :  # basis functions                  30          :
          :  # atomic orbitals                  30          :
          :  # shells                           20          :
          :  # electrons                        30          :
          :  max. iterations                   250          :
          :  Hamiltonian                  GFN2-xTB          :
          :  restarted?                      false          :
          :  GBSA solvation                  false          :
          :  PC potential                    false          :
          :  electronic temp.          300.0000000     K    :
          :  accuracy                    0.2000000          :
          :  -> integral cutoff          0.3198970E+02      :
          :  -> integral neglect         0.2000000E-08      :
          :  -> SCF convergence          0.2000000E-06 Eh   :
          :  -> wf. convergence          0.2000000E-04 e    :
          :  Broyden damping             0.4000000          :
          ...................................................

 iter      E             dE          RMSdq      gap      omega  full diag
   1    -15.9855069 -0.159855E+02  0.315E+00    5.29       0.0  T
   2    -16.0206552 -0.351483E-01  0.179E+00    5.24       1.0  T
   3    -16.0183657  0.228954E-02  0.974E-01    5.25       1.0  T
   4    -16.0205022 -0.213653E-02  0.571E-01    5.20       1.0  T
   5    -16.0234099 -0.290771E-02  0.664E-02    5.20       1.0  T
   6    -16.0234149 -0.495712E-05  0.352E-02    5.20       1.0  T
   7    -16.0234155 -0.653819E-06  0.621E-03    5.20       4.2  T
   8    -16.0234156 -0.101451E-06  0.126E-03    5.20      20.4  T
   9    -16.0234156 -0.120668E-08  0.378E-04    5.20      68.3  T
  10    -16.0234156 -0.289745E-09  0.120E-04    5.20     214.8  T
  11    -16.0234156 -0.554223E-11  0.244E-05    5.20    1060.1  T

   *** convergence criteria satisfied after 11 iterations ***

         #    Occupation            Energy/Eh            Energy/eV
      -------------------------------------------------------------
         1        2.0000           -0.6217344             -16.9183
       ...           ...                  ...                  ...
         9        2.0000           -0.4811021             -13.0915
        10        2.0000           -0.4583246             -12.4716
        11        2.0000           -0.4477734             -12.1845
        12        2.0000           -0.4389395             -11.9442
        13        2.0000           -0.4278368             -11.6420
        14        2.0000           -0.4175221             -11.3614
        15        2.0000           -0.3942422             -10.7279 (HOMO)
        16                         -0.2030323              -5.5248 (LUMO)
        17                          0.0980468               2.6680
        18                          0.1049235               2.8551
        19                          0.1223344               3.3289
        20                          0.1319580               3.5908
       ...                                ...                  ...
        30                          0.5700085              15.5107
      -------------------------------------------------------------
                  HL-Gap            0.1912100 Eh            5.2031 eV
             Fermi-level           -0.2986373 Eh           -8.1263 eV

 SCC (total)                   0 d,  0 h,  0 min,  0.061 sec
 SCC setup                      ...        0 min,  0.000 sec (  0.149%)
 Dispersion                     ...        0 min,  0.000 sec (  0.105%)
 classical contributions        ...        0 min,  0.000 sec (  0.031%)
 integral evaluation            ...        0 min,  0.001 sec (  1.288%)
 iterations                     ...        0 min,  0.058 sec ( 94.984%)
 molecular gradient             ...        0 min,  0.002 sec (  3.332%)
 printout                       ...        0 min,  0.000 sec (  0.090%)

         :::::::::::::::::::::::::::::::::::::::::::::::::::::
         ::                     SUMMARY                     ::
         :::::::::::::::::::::::::::::::::::::::::::::::::::::
         :: total energy             -15.768579303488 Eh    ::
         :: gradient norm              0.031846648015 Eh/a0 ::
         :: HOMO-LUMO gap              5.203087675094 eV    ::
         ::.................................................::
         :: SCC energy               -16.023415617310 Eh    ::
         :: -> isotropic ES            0.002842875577 Eh    ::
         :: -> anisotropic ES          0.005082984035 Eh    ::
         :: -> anisotropic XC          0.012609108750 Eh    ::
         :: -> dispersion             -0.007660478652 Eh    ::
         :: repulsion energy           0.254825026838 Eh    ::
         :: add. restraining           0.000000000000 Eh    ::
         :: total charge               0.000000000000 e     ::
         :::::::::::::::::::::::::::::::::::::::::::::::::::::

           -------------------------------------------------
          |                Property Printout                |
           -------------------------------------------------

    * Orbital Energies and Occupations

         #    Occupation            Energy/Eh            Energy/eV
      -------------------------------------------------------------
         1        2.0000           -0.6217344             -16.9183
       ...           ...                  ...                  ...
         3        2.0000           -0.5854321             -15.9304
         4        2.0000           -0.5602061             -15.2440
         5        2.0000           -0.5371818             -14.6175
         6        2.0000           -0.5126418             -13.9497
         7        2.0000           -0.5016658             -13.6510
         8        2.0000           -0.4850800             -13.1997
         9        2.0000           -0.4811021             -13.0915
        10        2.0000           -0.4583246             -12.4716
        11        2.0000           -0.4477734             -12.1845
        12        2.0000           -0.4389395             -11.9442
        13        2.0000           -0.4278368             -11.6420
        14        2.0000           -0.4175221             -11.3614
        15        2.0000           -0.3942422             -10.7279 (HOMO)
        16                         -0.2030323              -5.5248 (LUMO)
        17                          0.0980468               2.6680
        18                          0.1049235               2.8551
        19                          0.1223344               3.3289
        20                          0.1319580               3.5908
        21                          0.1474768               4.0130
        22                          0.1630274               4.4362
        23                          0.1822886               4.9603
        24                          0.1956746               5.3246
        25                          0.2100314               5.7152
        26                          0.2527994               6.8790
       ...                                ...                  ...
        30                          0.5700085              15.5107
      -------------------------------------------------------------
                  HL-Gap            0.1912100 Eh            5.2031 eV
             Fermi-level           -0.2986373 Eh           -8.1263 eV

     #   Z          covCN         q      C6AA      α(0)
     1   6 C        3.749    -0.099    22.450     6.758
     2   6 C        3.799    -0.047    21.413     6.589
     3   6 C        3.804    -0.056    21.583     6.614
     4   6 C        2.884    -0.028    28.689     8.781
     5   6 C        2.834    -0.095    30.389     9.034
     6   1 H        0.924     0.030     2.590     2.517
     7   1 H        0.924     0.033     2.545     2.495
     8   1 H        0.924     0.035     2.521     2.483
     9   1 H        0.924     0.028     2.610     2.526
    10   1 H        0.924     0.031     2.579     2.511
    11   1 H        0.924     0.038     2.481     2.463
    12   1 H        0.924     0.034     2.536     2.490
    13   1 H        0.925     0.032     2.556     2.500
    14   1 H        0.925     0.031     2.566     2.505
    15   1 H        0.925     0.034     2.534     2.489

 Mol. C6AA /au·bohr⁶  :       1664.179281
 Mol. C8AA /au·bohr⁸  :      35742.430027
 Mol. α(0) /au        :         62.756215


Wiberg/Mayer (AO) data.
largest (>0.10) Wiberg bond orders for each atom

 ---------------------------------------------------------------------------
     #   Z sym  total        # sym  WBO       # sym  WBO       # sym  WBO
 ---------------------------------------------------------------------------
     1   6 C    3.997 --     2 C    1.021     7 H    0.987     6 H    0.987
                             8 H    0.987
     2   6 C    3.997 --     1 C    1.021     3 C    0.991    10 H    0.979
                             9 H    0.978
     3   6 C    3.997 --     4 C    1.027     2 C    0.991    12 H    0.975
                            11 H    0.963
     4   6 C    3.990 --     5 C    1.977     3 C    1.027    13 H    0.967
     5   6 C    3.991 --     4 C    1.977    14 H    0.978    15 H    0.977
     6   1 H    0.999 --     1 C    0.987
     7   1 H    0.999 --     1 C    0.987
     8   1 H    0.999 --     1 C    0.987
     9   1 H    0.999 --     2 C    0.978
    10   1 H    0.999 --     2 C    0.979
    11   1 H    0.999 --     3 C    0.963
    12   1 H    0.999 --     3 C    0.975
    13   1 H    0.999 --     4 C    0.967
    14   1 H    0.999 --     5 C    0.978
    15   1 H    0.999 --     5 C    0.977
 ---------------------------------------------------------------------------

Topologies differ in total number of bonds
Writing topology from bond orders to xtbtopo.mol

molecular dipole:
                 x           y           z       tot (Debye)
 q only:       -0.131       0.063      -0.041
   full:       -0.143       0.067      -0.046       0.419
molecular quadrupole (traceless):
                xx          xy          yy          xz          yz          zz
 q only:       -0.446       0.082       0.389       0.079       0.254       0.057
  q+dip:       -0.799      -0.659       0.769       1.059       0.793       0.030
   full:       -0.722      -0.237       0.624       0.403       0.467       0.098


           -------------------------------------------------
          | TOTAL ENERGY              -15.768579303488 Eh   |
          | GRADIENT NORM               0.031846648015 Eh/α |
          | HOMO-LUMO GAP               5.203087675094 eV   |
           -------------------------------------------------

------------------------------------------------------------------------
 * finished run on 2023/05/01 at 20:57:15.579     
------------------------------------------------------------------------
 total:
 * wall-time:     0 d,  0 h,  0 min,  0.086 sec
 *  cpu-time:     0 d,  0 h,  0 min,  0.036 sec
 * ratio c/w:     0.417 speedup
 SCF:
 * wall-time:     0 d,  0 h,  0 min,  0.061 sec
 *  cpu-time:     0 d,  0 h,  0 min,  0.021 sec
 * ratio c/w:     0.350 speedup

