      -----------------------------------------------------------      
     |                   =====================                   |     
     |                           x T B                           |     
     |                   =====================                   |     
     |                         S. Grimme                         |     
     |          Mulliken Center for Theoretical Chemistry        |     
     |                    University of Bonn                     |     
      -----------------------------------------------------------      

   * xtb version 6.4.1 (unknown) compiled by 'software@adm6701' on 2022-02-17

   xtb is free software: you can redistribute it and/or modify it under
   the terms of the GNU Lesser General Public License as published by
   the Free Software Foundation, either version 3 of the License, or
   (at your option) any later version.
   
   xtb is distributed in the hope that it will be useful,
   but WITHOUT ANY WARRANTY; without even the implied warranty of
   MERCHANTABILITY or FITNESS FOR A PARTICULAR PURPOSE.  See the
   GNU Lesser General Public License for more details.
   
   Cite this work as:
   * C. Bannwarth, E. Caldeweyher, S. Ehlert, A. Hansen, P. Pracht,
     J. Seibert, S. Spicher, S. Grimme, WIREs Comput. Mol. Sci., 2020, 11,
     e01493. DOI: 10.1002/wcms.1493
   
   for GFN2-xTB:
   * C. Bannwarth, S. Ehlert and S. Grimme., J. Chem. Theory Comput., 2019,
     15, 1652-1671. DOI: 10.1021/acs.jctc.8b01176
   for GFN1-xTB:
   * S. Grimme, C. Bannwarth, P. Shushkov, J. Chem. Theory Comput., 2017,
     13, 1989-2009. DOI: 10.1021/acs.jctc.7b00118
   for GFN0-xTB:
   * P. Pracht, E. Caldeweyher, S. Ehlert, S. Grimme, ChemRxiv, 2019, preprint.
     DOI: 10.26434/chemrxiv.8326202.v1
   for GFN-FF:
   * S. Spicher and S. Grimme, Angew. Chem. Int. Ed., 2020, 59, 15665-15673.
     DOI: 10.1002/anie.202004239
   
   for DFT-D4:
   * E. Caldeweyher, C. Bannwarth and S. Grimme, J. Chem. Phys., 2017,
     147, 034112. DOI: 10.1063/1.4993215
   * E. Caldeweyher, S. Ehlert, A. Hansen, H. Neugebauer, S. Spicher,
     C. Bannwarth and S. Grimme, J. Chem. Phys., 2019, 150, 154122.
     DOI: 10.1063/1.5090222
   * E. Caldeweyher, J.-M. Mewes, S. Ehlert and S. Grimme, Phys. Chem. Chem. Phys.
     2020, 22, 8499-8512. DOI: 10.1039/D0CP00502A
   
   for sTDA-xTB:
   * S. Grimme and C. Bannwarth, J. Chem. Phys., 2016, 145, 054103.
     DOI: 10.1063/1.4959605
   
   in the mass-spec context:
   * V. Asgeirsson, C. Bauer and S. Grimme, Chem. Sci., 2017, 8, 4879.
     DOI: 10.1039/c7sc00601b
   * J. Koopman and S. Grimme, ACS Omega 2019, 4, 12, 15120-15133.
     DOI: 10.1021/acsomega.9b02011
   
   for metadynamics refer to:
   * S. Grimme, J. Chem. Theory Comput., 2019, 155, 2847-2862
     DOI: 10.1021/acs.jctc.9b00143
   
   for SPH calculations refer to:
   * S. Spicher and S. Grimme, J. Chem. Theory Comput., 2021, 17, 1701-1714
     DOI: 10.1021/acs.jctc.0c01306
   
   with help from (in alphabetical order)
   P. Atkinson, C. Bannwarth, F. Bohle, G. Brandenburg, E. Caldeweyher
   M. Checinski, S. Dohm, S. Ehlert, S. Ehrlich, I. Gerasimov, J. Koopman
   C. Lavigne, S. Lehtola, F. März, M. Müller, F. Musil, H. Neugebauer
   J. Pisarek, C. Plett, P. Pracht, J. Seibert, P. Shushkov, S. Spicher
   M. Stahn, M. Steiner, T. Strunk, J. Stückrath, T. Rose, and J. Unsleber
   
 * started run on 2023/05/01 at 20:57:35.234     

           -------------------------------------------------
          |                Calculation Setup                |
           -------------------------------------------------

          program call               : xtb /mnt/netapp1/Store_CSIC/home/csic/qoy/jar/test/QDESCP/mol_62_rdkit_conf_1/mol_62_rdkit_conf_1.xyz --pop --wbo --acc 0.2 --gfn 2 --chrg 0 --uhf 0 --etemp 300 --input /mnt/netapp1/Store_CSIC/home/csic/qoy/jar/test/QDESCP/mol_62_rdkit_conf_1/mol_62_rdkit_conf_1_xtb.inp
          hostname                   : login209-18
          coordinate file            : /mnt/netapp1/Store_CSIC/home/csic/qoy/jar/test/QDESCP/mol_62_rdkit_conf_1/mol_62_rdkit_conf_1.xyz
          omp threads                :                     1
          number of atoms            :                    20
          number of electrons        :                    48
          charge                     :                     0
          spin                       :                   0.0
          first test random number   :      0.01507481852610

   ID    Z sym.   atoms
    1    6 C      1-3, 5, 7, 8
    2    8 O      4, 6
    3    1 H      9-20

           -------------------------------------------------
          |                 G F N 2 - x T B                 |
           -------------------------------------------------

        Reference                      10.1021/acs.jctc.8b01176
      * Hamiltonian:
        H0-scaling (s, p, d)           1.850000    2.230000    2.230000
        zeta-weighting                 0.500000
      * Dispersion:
        s8                             2.700000
        a1                             0.520000
        a2                             5.000000
        s9                             5.000000
      * Repulsion:
        kExp                           1.500000    1.000000
        rExp                           1.000000
      * Coulomb:
        alpha                          2.000000
        third order                    shell-resolved
        anisotropic                    true
        a3                             3.000000
        a5                             4.000000
        cn-shift                       1.200000
        cn-exp                         4.000000
        max-rad                        5.000000


          ...................................................
          :                      SETUP                      :
          :.................................................:
          :  # basis functions                  44          :
          :  # atomic orbitals                  44          :
          :  # shells                           28          :
          :  # electrons                        48          :
          :  max. iterations                   250          :
          :  Hamiltonian                  GFN2-xTB          :
          :  restarted?                      false          :
          :  GBSA solvation                  false          :
          :  PC potential                    false          :
          :  electronic temp.          300.0000000     K    :
          :  accuracy                    0.2000000          :
          :  -> integral cutoff          0.3198970E+02      :
          :  -> integral neglect         0.2000000E-08      :
          :  -> SCF convergence          0.2000000E-06 Eh   :
          :  -> wf. convergence          0.2000000E-04 e    :
          :  Broyden damping             0.4000000          :
          ...................................................

 iter      E             dE          RMSdq      gap      omega  full diag
   1    -27.3406551 -0.273407E+02  0.397E+00    5.80       0.0  T
   2    -27.4085439 -0.678889E-01  0.205E+00    4.59       1.0  T
   3    -27.4120576 -0.351372E-02  0.119E+00    5.13       1.0  T
   4    -27.4153254 -0.326779E-02  0.187E-01    4.80       1.0  T
   5    -27.4156187 -0.293257E-03  0.745E-02    4.87       1.0  T
   6    -27.4156245 -0.576826E-05  0.193E-02    4.87       1.2  T
   7    -27.4156253 -0.815826E-06  0.738E-03    4.87       3.0  T
   8    -27.4156254 -0.154015E-06  0.188E-03    4.87      11.9  T
   9    -27.4156254 -0.588518E-08  0.973E-04    4.87      23.0  T
  10    -27.4156254 -0.268924E-08  0.186E-04    4.87     120.3  T
  11    -27.4156254 -0.482991E-10  0.820E-05    4.87     272.7  T

   *** convergence criteria satisfied after 11 iterations ***

         #    Occupation            Energy/Eh            Energy/eV
      -------------------------------------------------------------
         1        2.0000           -0.7354126             -20.0116
       ...           ...                  ...                  ...
        18        2.0000           -0.4675288             -12.7221
        19        2.0000           -0.4629474             -12.5974
        20        2.0000           -0.4591769             -12.4948
        21        2.0000           -0.4472199             -12.1695
        22        2.0000           -0.4369255             -11.8893
        23        2.0000           -0.4344871             -11.8230
        24        2.0000           -0.4138291             -11.2609 (HOMO)
        25                         -0.2349272              -6.3927 (LUMO)
        26                         -0.0058266              -0.1585
        27                          0.0916419               2.4937
        28                          0.1040912               2.8325
        29                          0.1202910               3.2733
       ...                                ...                  ...
        44                          0.5979104              16.2700
      -------------------------------------------------------------
                  HL-Gap            0.1789019 Eh            4.8682 eV
             Fermi-level           -0.3243781 Eh           -8.8268 eV

 SCC (total)                   0 d,  0 h,  0 min,  0.075 sec
 SCC setup                      ...        0 min,  0.000 sec (  0.163%)
 Dispersion                     ...        0 min,  0.000 sec (  0.147%)
 classical contributions        ...        0 min,  0.000 sec (  0.035%)
 integral evaluation            ...        0 min,  0.002 sec (  2.226%)
 iterations                     ...        0 min,  0.069 sec ( 91.993%)
 molecular gradient             ...        0 min,  0.004 sec (  5.331%)
 printout                       ...        0 min,  0.000 sec (  0.086%)

         :::::::::::::::::::::::::::::::::::::::::::::::::::::
         ::                     SUMMARY                     ::
         :::::::::::::::::::::::::::::::::::::::::::::::::::::
         :: total energy             -27.113539680570 Eh    ::
         :: gradient norm              0.052677261362 Eh/a0 ::
         :: HOMO-LUMO gap              4.868167814458 eV    ::
         ::.................................................::
         :: SCC energy               -27.415625428774 Eh    ::
         :: -> isotropic ES            0.046428706968 Eh    ::
         :: -> anisotropic ES          0.003586381265 Eh    ::
         :: -> anisotropic XC          0.008618073462 Eh    ::
         :: -> dispersion             -0.011336368533 Eh    ::
         :: repulsion energy           0.302109098318 Eh    ::
         :: add. restraining           0.000000000000 Eh    ::
         :: total charge              -0.000000000000 e     ::
         :::::::::::::::::::::::::::::::::::::::::::::::::::::

           -------------------------------------------------
          |                Property Printout                |
           -------------------------------------------------

    * Orbital Energies and Occupations

         #    Occupation            Energy/Eh            Energy/eV
      -------------------------------------------------------------
         1        2.0000           -0.7354126             -20.0116
       ...           ...                  ...                  ...
        12        2.0000           -0.5205122             -14.1639
        13        2.0000           -0.5172199             -14.0743
        14        2.0000           -0.5022583             -13.6671
        15        2.0000           -0.4970957             -13.5267
        16        2.0000           -0.4811763             -13.0935
        17        2.0000           -0.4715304             -12.8310
        18        2.0000           -0.4675288             -12.7221
        19        2.0000           -0.4629474             -12.5974
        20        2.0000           -0.4591769             -12.4948
        21        2.0000           -0.4472199             -12.1695
        22        2.0000           -0.4369255             -11.8893
        23        2.0000           -0.4344871             -11.8230
        24        2.0000           -0.4138291             -11.2609 (HOMO)
        25                         -0.2349272              -6.3927 (LUMO)
        26                         -0.0058266              -0.1585
        27                          0.0916419               2.4937
        28                          0.1040912               2.8325
        29                          0.1202910               3.2733
        30                          0.1229586               3.3459
        31                          0.1394254               3.7940
        32                          0.1407392               3.8297
        33                          0.1474349               4.0119
        34                          0.1519121               4.1337
        35                          0.1652696               4.4972
       ...                                ...                  ...
        44                          0.5979104              16.2700
      -------------------------------------------------------------
                  HL-Gap            0.1789019 Eh            4.8682 eV
             Fermi-level           -0.3243781 Eh           -8.8268 eV

     #   Z          covCN         q      C6AA      α(0)
     1   6 C        3.750    -0.107    22.603     6.780
     2   6 C        3.799    -0.058    21.616     6.620
     3   6 C        3.696     0.077    19.456     6.310
     4   8 O        1.702    -0.280    18.641     5.829
     5   6 C        2.712     0.352    21.025     7.506
     6   8 O        0.856    -0.403    21.745     6.252
     7   6 C        3.801    -0.083    22.084     6.691
     8   6 C        3.751    -0.102    22.519     6.768
     9   1 H        0.924     0.037     2.491     2.468
    10   1 H        0.924     0.044     2.391     2.418
    11   1 H        0.924     0.042     2.423     2.434
    12   1 H        0.924     0.050     2.321     2.383
    13   1 H        0.924     0.043     2.408     2.427
    14   1 H        0.924     0.052     2.297     2.370
    15   1 H        0.924     0.055     2.256     2.349
    16   1 H        0.924     0.069     2.102     2.267
    17   1 H        0.924     0.068     2.102     2.268
    18   1 H        0.924     0.042     2.429     2.437
    19   1 H        0.924     0.051     2.308     2.376
    20   1 H        0.924     0.051     2.306     2.375

 Mol. C6AA /au·bohr⁶  :       3020.225938
 Mol. C8AA /au·bohr⁸  :      64025.935563
 Mol. α(0) /au        :         81.326830


Wiberg/Mayer (AO) data.
largest (>0.10) Wiberg bond orders for each atom

 ---------------------------------------------------------------------------
     #   Z sym  total        # sym  WBO       # sym  WBO       # sym  WBO
 ---------------------------------------------------------------------------
     1   6 C    3.995 --     2 C    1.020     9 H    0.987    11 H    0.987
                            10 H    0.986
     2   6 C    3.994 --     1 C    1.020     3 C    1.000    13 H    0.976
                            12 H    0.975
     3   6 C    3.927 --     2 C    1.000    14 H    0.971    15 H    0.969
                             4 O    0.942
     4   8 O    2.288 --     5 C    1.115     3 C    0.942     6 O    0.170
     5   6 C    3.914 --     6 O    1.762     4 O    1.115     7 C    0.978
     6   8 O    2.042 --     5 C    1.762     4 O    0.170
     7   6 C    3.995 --     8 C    1.020     5 C    0.978    17 H    0.955
                            16 H    0.954
     8   6 C    3.993 --     7 C    1.020    18 H    0.987    19 H    0.986
                            20 H    0.986
     9   1 H    0.999 --     1 C    0.987
    10   1 H    0.998 --     1 C    0.986
    11   1 H    0.998 --     1 C    0.987
    12   1 H    0.998 --     2 C    0.975
    13   1 H    0.998 --     2 C    0.976
    14   1 H    0.997 --     3 C    0.971
    15   1 H    0.997 --     3 C    0.969
    16   1 H    0.995 --     7 C    0.954
    17   1 H    0.995 --     7 C    0.955
    18   1 H    0.998 --     8 C    0.987
    19   1 H    0.997 --     8 C    0.986
    20   1 H    0.997 --     8 C    0.986
 ---------------------------------------------------------------------------

Topologies differ in total number of bonds
Writing topology from bond orders to xtbtopo.mol

molecular dipole:
                 x           y           z       tot (Debye)
 q only:       -0.096       0.256       0.625
   full:       -0.104       0.238       0.766       2.057
molecular quadrupole (traceless):
                xx          xy          yy          xz          yz          zz
 q only:        7.767       0.197      -1.949       1.285      -1.829      -5.819
  q+dip:        5.563       0.650       0.319       1.768      -2.274      -5.882
   full:        6.319       0.497       0.298       1.709      -2.547      -6.617


           -------------------------------------------------
          | TOTAL ENERGY              -27.113539680570 Eh   |
          | GRADIENT NORM               0.052677261362 Eh/α |
          | HOMO-LUMO GAP               4.868167814458 eV   |
           -------------------------------------------------

------------------------------------------------------------------------
 * finished run on 2023/05/01 at 20:57:35.347     
------------------------------------------------------------------------
 total:
 * wall-time:     0 d,  0 h,  0 min,  0.112 sec
 *  cpu-time:     0 d,  0 h,  0 min,  0.044 sec
 * ratio c/w:     0.391 speedup
 SCF:
 * wall-time:     0 d,  0 h,  0 min,  0.075 sec
 *  cpu-time:     0 d,  0 h,  0 min,  0.028 sec
 * ratio c/w:     0.380 speedup

