      -----------------------------------------------------------      
     |                   =====================                   |     
     |                           x T B                           |     
     |                   =====================                   |     
     |                         S. Grimme                         |     
     |          Mulliken Center for Theoretical Chemistry        |     
     |                    University of Bonn                     |     
      -----------------------------------------------------------      

   * xtb version 6.4.1 (unknown) compiled by 'software@adm6701' on 2022-02-17

   xtb is free software: you can redistribute it and/or modify it under
   the terms of the GNU Lesser General Public License as published by
   the Free Software Foundation, either version 3 of the License, or
   (at your option) any later version.
   
   xtb is distributed in the hope that it will be useful,
   but WITHOUT ANY WARRANTY; without even the implied warranty of
   MERCHANTABILITY or FITNESS FOR A PARTICULAR PURPOSE.  See the
   GNU Lesser General Public License for more details.
   
   Cite this work as:
   * C. Bannwarth, E. Caldeweyher, S. Ehlert, A. Hansen, P. Pracht,
     J. Seibert, S. Spicher, S. Grimme, WIREs Comput. Mol. Sci., 2020, 11,
     e01493. DOI: 10.1002/wcms.1493
   
   for GFN2-xTB:
   * C. Bannwarth, S. Ehlert and S. Grimme., J. Chem. Theory Comput., 2019,
     15, 1652-1671. DOI: 10.1021/acs.jctc.8b01176
   for GFN1-xTB:
   * S. Grimme, C. Bannwarth, P. Shushkov, J. Chem. Theory Comput., 2017,
     13, 1989-2009. DOI: 10.1021/acs.jctc.7b00118
   for GFN0-xTB:
   * P. Pracht, E. Caldeweyher, S. Ehlert, S. Grimme, ChemRxiv, 2019, preprint.
     DOI: 10.26434/chemrxiv.8326202.v1
   for GFN-FF:
   * S. Spicher and S. Grimme, Angew. Chem. Int. Ed., 2020, 59, 15665-15673.
     DOI: 10.1002/anie.202004239
   
   for DFT-D4:
   * E. Caldeweyher, C. Bannwarth and S. Grimme, J. Chem. Phys., 2017,
     147, 034112. DOI: 10.1063/1.4993215
   * E. Caldeweyher, S. Ehlert, A. Hansen, H. Neugebauer, S. Spicher,
     C. Bannwarth and S. Grimme, J. Chem. Phys., 2019, 150, 154122.
     DOI: 10.1063/1.5090222
   * E. Caldeweyher, J.-M. Mewes, S. Ehlert and S. Grimme, Phys. Chem. Chem. Phys.
     2020, 22, 8499-8512. DOI: 10.1039/D0CP00502A
   
   for sTDA-xTB:
   * S. Grimme and C. Bannwarth, J. Chem. Phys., 2016, 145, 054103.
     DOI: 10.1063/1.4959605
   
   in the mass-spec context:
   * V. Asgeirsson, C. Bauer and S. Grimme, Chem. Sci., 2017, 8, 4879.
     DOI: 10.1039/c7sc00601b
   * J. Koopman and S. Grimme, ACS Omega 2019, 4, 12, 15120-15133.
     DOI: 10.1021/acsomega.9b02011
   
   for metadynamics refer to:
   * S. Grimme, J. Chem. Theory Comput., 2019, 155, 2847-2862
     DOI: 10.1021/acs.jctc.9b00143
   
   for SPH calculations refer to:
   * S. Spicher and S. Grimme, J. Chem. Theory Comput., 2021, 17, 1701-1714
     DOI: 10.1021/acs.jctc.0c01306
   
   with help from (in alphabetical order)
   P. Atkinson, C. Bannwarth, F. Bohle, G. Brandenburg, E. Caldeweyher
   M. Checinski, S. Dohm, S. Ehlert, S. Ehrlich, I. Gerasimov, J. Koopman
   C. Lavigne, S. Lehtola, F. März, M. Müller, F. Musil, H. Neugebauer
   J. Pisarek, C. Plett, P. Pracht, J. Seibert, P. Shushkov, S. Spicher
   M. Stahn, M. Steiner, T. Strunk, J. Stückrath, T. Rose, and J. Unsleber
   
 * started run on 2023/05/01 at 20:57:15.978     

           -------------------------------------------------
          |                Calculation Setup                |
           -------------------------------------------------

          program call               : xtb /mnt/netapp1/Store_CSIC/home/csic/qoy/jar/test/QDESCP/mol_16_rdkit_conf_1/mol_16_rdkit_conf_1.xyz --pop --wbo --acc 0.2 --gfn 2 --chrg 0 --uhf 0 --etemp 300 --input /mnt/netapp1/Store_CSIC/home/csic/qoy/jar/test/QDESCP/mol_16_rdkit_conf_1/mol_16_rdkit_conf_1_xtb.inp
          hostname                   : login209-18
          coordinate file            : /mnt/netapp1/Store_CSIC/home/csic/qoy/jar/test/QDESCP/mol_16_rdkit_conf_1/mol_16_rdkit_conf_1.xyz
          omp threads                :                     1
          number of atoms            :                    11
          number of electrons        :                    26
          charge                     :                     0
          spin                       :                   0.0
          first test random number   :      0.77657592250451

   ID    Z sym.   atoms
    1    6 C      1-3
    2   17 Cl     4
    3    1 H      5-11

           -------------------------------------------------
          |                 G F N 2 - x T B                 |
           -------------------------------------------------

        Reference                      10.1021/acs.jctc.8b01176
      * Hamiltonian:
        H0-scaling (s, p, d)           1.850000    2.230000    2.230000
        zeta-weighting                 0.500000
      * Dispersion:
        s8                             2.700000
        a1                             0.520000
        a2                             5.000000
        s9                             5.000000
      * Repulsion:
        kExp                           1.500000    1.000000
        rExp                           1.000000
      * Coulomb:
        alpha                          2.000000
        third order                    shell-resolved
        anisotropic                    true
        a3                             3.000000
        a5                             4.000000
        cn-shift                       1.200000
        cn-exp                         4.000000
        max-rad                        5.000000


          ...................................................
          :                      SETUP                      :
          :.................................................:
          :  # basis functions                  29          :
          :  # atomic orbitals                  28          :
          :  # shells                           16          :
          :  # electrons                        26          :
          :  max. iterations                   250          :
          :  Hamiltonian                  GFN2-xTB          :
          :  restarted?                      false          :
          :  GBSA solvation                  false          :
          :  PC potential                    false          :
          :  electronic temp.          300.0000000     K    :
          :  accuracy                    0.2000000          :
          :  -> integral cutoff          0.3198970E+02      :
          :  -> integral neglect         0.2000000E-08      :
          :  -> SCF convergence          0.2000000E-06 Eh   :
          :  -> wf. convergence          0.2000000E-04 e    :
          :  Broyden damping             0.4000000          :
          ...................................................

 iter      E             dE          RMSdq      gap      omega  full diag
   1    -14.6441343 -0.146441E+02  0.344E+00    7.62       0.0  T
   2    -14.6898374 -0.457031E-01  0.208E+00    6.90       1.0  T
   3    -14.6920142 -0.217674E-02  0.106E+00    7.07       1.0  T
   4    -14.6923684 -0.354229E-03  0.237E-01    6.97       1.0  T
   5    -14.6925288 -0.160450E-03  0.906E-02    7.00       1.0  T
   6    -14.6925414 -0.126041E-04  0.393E-02    6.98       1.0  T
   7    -14.6925484 -0.694800E-05  0.215E-02    6.97       1.4  T
   8    -14.6925510 -0.257692E-05  0.738E-03    6.96       4.1  T
   9    -14.6925511 -0.121240E-06  0.744E-04    6.96      40.5  T
  10    -14.6925511 -0.437662E-09  0.186E-04    6.96     162.1  T
  11    -14.6925511 -0.896438E-10  0.117E-04    6.96     257.4  T

   *** convergence criteria satisfied after 11 iterations ***

         #    Occupation            Energy/Eh            Energy/eV
      -------------------------------------------------------------
         1        2.0000           -1.0443261             -28.4176
       ...           ...                  ...                  ...
         7        2.0000           -0.5061668             -13.7735
         8        2.0000           -0.4790937             -13.0368
         9        2.0000           -0.4653283             -12.6622
        10        2.0000           -0.4614190             -12.5559
        11        2.0000           -0.4552477             -12.3879
        12        2.0000           -0.4078574             -11.0984
        13        2.0000           -0.4063427             -11.0571 (HOMO)
        14                         -0.1506281              -4.0988 (LUMO)
        15                          0.0208690               0.5679
        16                          0.0248159               0.6753
        17                          0.0339800               0.9246
        18                          0.0340505               0.9266
       ...                                ...                  ...
        28                          0.2621999               7.1348
      -------------------------------------------------------------
                  HL-Gap            0.2557146 Eh            6.9583 eV
             Fermi-level           -0.2784854 Eh           -7.5780 eV

 SCC (total)                   0 d,  0 h,  0 min,  0.061 sec
 SCC setup                      ...        0 min,  0.000 sec (  0.143%)
 Dispersion                     ...        0 min,  0.000 sec (  0.070%)
 classical contributions        ...        0 min,  0.000 sec (  0.021%)
 integral evaluation            ...        0 min,  0.056 sec ( 93.075%)
 iterations                     ...        0 min,  0.002 sec (  3.852%)
 molecular gradient             ...        0 min,  0.002 sec (  2.727%)
 printout                       ...        0 min,  0.000 sec (  0.089%)

         :::::::::::::::::::::::::::::::::::::::::::::::::::::
         ::                     SUMMARY                     ::
         :::::::::::::::::::::::::::::::::::::::::::::::::::::
         :: total energy             -14.547023029920 Eh    ::
         :: gradient norm              0.019555276905 Eh/a0 ::
         :: HOMO-LUMO gap              6.958348035461 eV    ::
         ::.................................................::
         :: SCC energy               -14.692551095314 Eh    ::
         :: -> isotropic ES            0.007858253143 Eh    ::
         :: -> anisotropic ES          0.001812168589 Eh    ::
         :: -> anisotropic XC          0.007464244101 Eh    ::
         :: -> dispersion             -0.005461661396 Eh    ::
         :: repulsion energy           0.145524295235 Eh    ::
         :: add. restraining           0.000000000000 Eh    ::
         :: total charge              -0.000000000000 e     ::
         :::::::::::::::::::::::::::::::::::::::::::::::::::::

           -------------------------------------------------
          |                Property Printout                |
           -------------------------------------------------

    * Orbital Energies and Occupations

         #    Occupation            Energy/Eh            Energy/eV
      -------------------------------------------------------------
         1        2.0000           -1.0443261             -28.4176
         2        2.0000           -0.6414803             -17.4556
         3        2.0000           -0.6079268             -16.5425
         4        2.0000           -0.5759320             -15.6719
         5        2.0000           -0.5334360             -14.5155
         6        2.0000           -0.5192730             -14.1301
         7        2.0000           -0.5061668             -13.7735
         8        2.0000           -0.4790937             -13.0368
         9        2.0000           -0.4653283             -12.6622
        10        2.0000           -0.4614190             -12.5559
        11        2.0000           -0.4552477             -12.3879
        12        2.0000           -0.4078574             -11.0984
        13        2.0000           -0.4063427             -11.0571 (HOMO)
        14                         -0.1506281              -4.0988 (LUMO)
        15                          0.0208690               0.5679
        16                          0.0248159               0.6753
        17                          0.0339800               0.9246
        18                          0.0340505               0.9266
        19                          0.0824712               2.2442
        20                          0.1065297               2.8988
        21                          0.1260464               3.4299
        22                          0.1380636               3.7569
        23                          0.1604272               4.3654
        24                          0.1772706               4.8238
       ...                                ...                  ...
        28                          0.2621999               7.1348
      -------------------------------------------------------------
                  HL-Gap            0.2557146 Eh            6.9583 eV
             Fermi-level           -0.2784854 Eh           -7.5780 eV

     #   Z          covCN         q      C6AA      α(0)
     1   6 C        3.784    -0.112    22.662     6.781
     2   6 C        3.762     0.083    19.248     6.254
     3   6 C        3.784    -0.112    22.662     6.781
     4  17 Cl       0.956    -0.223   106.210    15.767
     5   1 H        0.924     0.048     2.348     2.396
     6   1 H        0.924     0.053     2.287     2.365
     7   1 H        0.924     0.056     2.250     2.346
     8   1 H        0.924     0.053     2.289     2.366
     9   1 H        0.924     0.048     2.348     2.396
    10   1 H        0.924     0.053     2.287     2.365
    11   1 H        0.924     0.056     2.250     2.346

 Mol. C6AA /au·bohr⁶  :       1209.289616
 Mol. C8AA /au·bohr⁸  :      31697.531744
 Mol. α(0) /au        :         52.161938


Wiberg/Mayer (AO) data.
largest (>0.10) Wiberg bond orders for each atom

 ---------------------------------------------------------------------------
     #   Z sym  total        # sym  WBO       # sym  WBO       # sym  WBO
 ---------------------------------------------------------------------------
     1   6 C    3.992 --     2 C    1.018     6 H    0.985     7 H    0.985
                             5 H    0.979
     2   6 C    3.938 --     3 C    1.018     1 C    1.018     8 H    0.971
                             4 Cl   0.926
     3   6 C    3.992 --     2 C    1.018    10 H    0.985    11 H    0.985
                             9 H    0.979
     4  17 Cl   0.989 --     2 C    0.926
     5   1 H    0.998 --     1 C    0.979
     6   1 H    0.997 --     1 C    0.985
     7   1 H    0.997 --     1 C    0.985
     8   1 H    0.997 --     2 C    0.971
     9   1 H    0.998 --     3 C    0.979
    10   1 H    0.997 --     3 C    0.985
    11   1 H    0.997 --     3 C    0.985
 ---------------------------------------------------------------------------

Topologies differ in total number of bonds
Writing topology from bond orders to xtbtopo.mol

molecular dipole:
                 x           y           z       tot (Debye)
 q only:       -0.028      -0.242      -0.904
   full:       -0.033      -0.276      -0.878       2.341
molecular quadrupole (traceless):
                xx          xy          yy          xz          yz          zz
 q only:        2.693      -0.166       1.537      -0.125      -1.251      -4.230
  q+dip:        2.327       0.033       2.443      -0.178      -1.618      -4.770
   full:        2.188      -0.035       1.889      -0.121      -1.186      -4.077


           -------------------------------------------------
          | TOTAL ENERGY              -14.547023029920 Eh   |
          | GRADIENT NORM               0.019555276905 Eh/α |
          | HOMO-LUMO GAP               6.958348035461 eV   |
           -------------------------------------------------

------------------------------------------------------------------------
 * finished run on 2023/05/01 at 20:57:16.061     
------------------------------------------------------------------------
 total:
 * wall-time:     0 d,  0 h,  0 min,  0.083 sec
 *  cpu-time:     0 d,  0 h,  0 min,  0.038 sec
 * ratio c/w:     0.460 speedup
 SCF:
 * wall-time:     0 d,  0 h,  0 min,  0.061 sec
 *  cpu-time:     0 d,  0 h,  0 min,  0.024 sec
 * ratio c/w:     0.388 speedup

