      -----------------------------------------------------------      
     |                   =====================                   |     
     |                           x T B                           |     
     |                   =====================                   |     
     |                         S. Grimme                         |     
     |          Mulliken Center for Theoretical Chemistry        |     
     |                    University of Bonn                     |     
      -----------------------------------------------------------      

   * xtb version 6.4.1 (unknown) compiled by 'software@adm6701' on 2022-02-17

   xtb is free software: you can redistribute it and/or modify it under
   the terms of the GNU Lesser General Public License as published by
   the Free Software Foundation, either version 3 of the License, or
   (at your option) any later version.
   
   xtb is distributed in the hope that it will be useful,
   but WITHOUT ANY WARRANTY; without even the implied warranty of
   MERCHANTABILITY or FITNESS FOR A PARTICULAR PURPOSE.  See the
   GNU Lesser General Public License for more details.
   
   Cite this work as:
   * C. Bannwarth, E. Caldeweyher, S. Ehlert, A. Hansen, P. Pracht,
     J. Seibert, S. Spicher, S. Grimme, WIREs Comput. Mol. Sci., 2020, 11,
     e01493. DOI: 10.1002/wcms.1493
   
   for GFN2-xTB:
   * C. Bannwarth, S. Ehlert and S. Grimme., J. Chem. Theory Comput., 2019,
     15, 1652-1671. DOI: 10.1021/acs.jctc.8b01176
   for GFN1-xTB:
   * S. Grimme, C. Bannwarth, P. Shushkov, J. Chem. Theory Comput., 2017,
     13, 1989-2009. DOI: 10.1021/acs.jctc.7b00118
   for GFN0-xTB:
   * P. Pracht, E. Caldeweyher, S. Ehlert, S. Grimme, ChemRxiv, 2019, preprint.
     DOI: 10.26434/chemrxiv.8326202.v1
   for GFN-FF:
   * S. Spicher and S. Grimme, Angew. Chem. Int. Ed., 2020, 59, 15665-15673.
     DOI: 10.1002/anie.202004239
   
   for DFT-D4:
   * E. Caldeweyher, C. Bannwarth and S. Grimme, J. Chem. Phys., 2017,
     147, 034112. DOI: 10.1063/1.4993215
   * E. Caldeweyher, S. Ehlert, A. Hansen, H. Neugebauer, S. Spicher,
     C. Bannwarth and S. Grimme, J. Chem. Phys., 2019, 150, 154122.
     DOI: 10.1063/1.5090222
   * E. Caldeweyher, J.-M. Mewes, S. Ehlert and S. Grimme, Phys. Chem. Chem. Phys.
     2020, 22, 8499-8512. DOI: 10.1039/D0CP00502A
   
   for sTDA-xTB:
   * S. Grimme and C. Bannwarth, J. Chem. Phys., 2016, 145, 054103.
     DOI: 10.1063/1.4959605
   
   in the mass-spec context:
   * V. Asgeirsson, C. Bauer and S. Grimme, Chem. Sci., 2017, 8, 4879.
     DOI: 10.1039/c7sc00601b
   * J. Koopman and S. Grimme, ACS Omega 2019, 4, 12, 15120-15133.
     DOI: 10.1021/acsomega.9b02011
   
   for metadynamics refer to:
   * S. Grimme, J. Chem. Theory Comput., 2019, 155, 2847-2862
     DOI: 10.1021/acs.jctc.9b00143
   
   for SPH calculations refer to:
   * S. Spicher and S. Grimme, J. Chem. Theory Comput., 2021, 17, 1701-1714
     DOI: 10.1021/acs.jctc.0c01306
   
   with help from (in alphabetical order)
   P. Atkinson, C. Bannwarth, F. Bohle, G. Brandenburg, E. Caldeweyher
   M. Checinski, S. Dohm, S. Ehlert, S. Ehrlich, I. Gerasimov, J. Koopman
   C. Lavigne, S. Lehtola, F. März, M. Müller, F. Musil, H. Neugebauer
   J. Pisarek, C. Plett, P. Pracht, J. Seibert, P. Shushkov, S. Spicher
   M. Stahn, M. Steiner, T. Strunk, J. Stückrath, T. Rose, and J. Unsleber
   
 * started run on 2023/05/01 at 20:57:20.439     

           -------------------------------------------------
          |                Calculation Setup                |
           -------------------------------------------------

          program call               : xtb /mnt/netapp1/Store_CSIC/home/csic/qoy/jar/test/QDESCP/mol_23_rdkit_conf_2/mol_23_rdkit_conf_2.xyz --pop --wbo --acc 0.2 --gfn 2 --chrg 0 --uhf 0 --etemp 300 --input /mnt/netapp1/Store_CSIC/home/csic/qoy/jar/test/QDESCP/mol_23_rdkit_conf_2/mol_23_rdkit_conf_2_xtb.inp
          hostname                   : login209-18
          coordinate file            : /mnt/netapp1/Store_CSIC/home/csic/qoy/jar/test/QDESCP/mol_23_rdkit_conf_2/mol_23_rdkit_conf_2.xyz
          omp threads                :                     1
          number of atoms            :                    30
          number of electrons        :                    80
          charge                     :                     0
          spin                       :                   0.0
          first test random number   :      0.51091867006760

   ID    Z sym.   atoms
    1    6 C      1, 2, 7, 8, 10, 12, 13
    2    8 O      3, 6
    3   15 P      4
    4   16 S      5, 9, 11
    5    1 H      14-30

           -------------------------------------------------
          |                 G F N 2 - x T B                 |
           -------------------------------------------------

        Reference                      10.1021/acs.jctc.8b01176
      * Hamiltonian:
        H0-scaling (s, p, d)           1.850000    2.230000    2.230000
        zeta-weighting                 0.500000
      * Dispersion:
        s8                             2.700000
        a1                             0.520000
        a2                             5.000000
        s9                             5.000000
      * Repulsion:
        kExp                           1.500000    1.000000
        rExp                           1.000000
      * Coulomb:
        alpha                          2.000000
        third order                    shell-resolved
        anisotropic                    true
        a3                             3.000000
        a5                             4.000000
        cn-shift                       1.200000
        cn-exp                         4.000000
        max-rad                        5.000000


          ...................................................
          :                      SETUP                      :
          :.................................................:
          :  # basis functions                  93          :
          :  # atomic orbitals                  89          :
          :  # shells                           47          :
          :  # electrons                        80          :
          :  max. iterations                   250          :
          :  Hamiltonian                  GFN2-xTB          :
          :  restarted?                      false          :
          :  GBSA solvation                  false          :
          :  PC potential                    false          :
          :  electronic temp.          300.0000000     K    :
          :  accuracy                    0.2000000          :
          :  -> integral cutoff          0.3198970E+02      :
          :  -> integral neglect         0.2000000E-08      :
          :  -> SCF convergence          0.2000000E-06 Eh   :
          :  -> wf. convergence          0.2000000E-04 e    :
          :  Broyden damping             0.4000000          :
          ...................................................

 iter      E             dE          RMSdq      gap      omega  full diag
   1    -44.4131447 -0.444131E+02  0.606E+00    4.44       0.0  T
   2    -44.5264208 -0.113276E+00  0.378E+00    3.49       1.0  T
   3    -44.5366593 -0.102385E-01  0.121E+00    3.25       1.0  T
   4    -44.5388781 -0.221876E-02  0.500E-01    3.10       1.0  T
   5    -44.5394160 -0.537905E-03  0.247E-01    3.17       1.0  T
   6    -44.5395308 -0.114792E-03  0.104E-01    3.18       1.0  T
   7    -44.5395570 -0.261985E-04  0.361E-02    3.18       1.0  T
   8    -44.5395605 -0.349589E-05  0.177E-02    3.18       1.0  T
   9    -44.5395608 -0.391990E-06  0.342E-03    3.18       5.3  T
  10    -44.5395609 -0.198333E-07  0.172E-03    3.18      10.6  T
  11    -44.5395609 -0.454069E-08  0.388E-04    3.18      47.0  T
  12    -44.5395609 -0.257302E-09  0.188E-04    3.18      97.2  T
  13    -44.5395609 -0.455671E-10  0.652E-05    3.18     280.0  T

   *** convergence criteria satisfied after 13 iterations ***

         #    Occupation            Energy/Eh            Energy/eV
      -------------------------------------------------------------
         1        2.0000           -0.7511447             -20.4397
       ...           ...                  ...                  ...
        34        2.0000           -0.4548853             -12.3781
        35        2.0000           -0.4495717             -12.2335
        36        2.0000           -0.4365722             -11.8797
        37        2.0000           -0.4073602             -11.0848
        38        2.0000           -0.3807648             -10.3611
        39        2.0000           -0.3723839             -10.1331
        40        2.0000           -0.3702865             -10.0760 (HOMO)
        41                         -0.2533814              -6.8949 (LUMO)
        42                         -0.2321462              -6.3170
        43                         -0.2017822              -5.4908
        44                         -0.1658056              -4.5118
        45                         -0.1539686              -4.1897
       ...                                ...                  ...
        89                          1.2958381              35.2616
      -------------------------------------------------------------
                  HL-Gap            0.1169051 Eh            3.1812 eV
             Fermi-level           -0.3118339 Eh           -8.4854 eV

 SCC (total)                   0 d,  0 h,  0 min,  0.106 sec
 SCC setup                      ...        0 min,  0.000 sec (  0.168%)
 Dispersion                     ...        0 min,  0.000 sec (  0.219%)
 classical contributions        ...        0 min,  0.000 sec (  0.043%)
 integral evaluation            ...        0 min,  0.079 sec ( 74.451%)
 iterations                     ...        0 min,  0.015 sec ( 14.220%)
 molecular gradient             ...        0 min,  0.011 sec ( 10.781%)
 printout                       ...        0 min,  0.000 sec (  0.100%)

         :::::::::::::::::::::::::::::::::::::::::::::::::::::
         ::                     SUMMARY                     ::
         :::::::::::::::::::::::::::::::::::::::::::::::::::::
         :: total energy             -44.140416268124 Eh    ::
         :: gradient norm              0.059392026794 Eh/a0 ::
         :: HOMO-LUMO gap              3.181150157058 eV    ::
         ::.................................................::
         :: SCC energy               -44.539560868040 Eh    ::
         :: -> isotropic ES            0.056405326748 Eh    ::
         :: -> anisotropic ES         -0.000883248163 Eh    ::
         :: -> anisotropic XC          0.024622070219 Eh    ::
         :: -> dispersion             -0.029555737123 Eh    ::
         :: repulsion energy           0.398947575187 Eh    ::
         :: add. restraining           0.000000000000 Eh    ::
         :: total charge               0.000000000000 e     ::
         :::::::::::::::::::::::::::::::::::::::::::::::::::::

           -------------------------------------------------
          |                Property Printout                |
           -------------------------------------------------

    * Orbital Energies and Occupations

         #    Occupation            Energy/Eh            Energy/eV
      -------------------------------------------------------------
         1        2.0000           -0.7511447             -20.4397
       ...           ...                  ...                  ...
        28        2.0000           -0.4855349             -13.2121
        29        2.0000           -0.4836435             -13.1606
        30        2.0000           -0.4782493             -13.0138
        31        2.0000           -0.4741141             -12.9013
        32        2.0000           -0.4663672             -12.6905
        33        2.0000           -0.4610014             -12.5445
        34        2.0000           -0.4548853             -12.3781
        35        2.0000           -0.4495717             -12.2335
        36        2.0000           -0.4365722             -11.8797
        37        2.0000           -0.4073602             -11.0848
        38        2.0000           -0.3807648             -10.3611
        39        2.0000           -0.3723839             -10.1331
        40        2.0000           -0.3702865             -10.0760 (HOMO)
        41                         -0.2533814              -6.8949 (LUMO)
        42                         -0.2321462              -6.3170
        43                         -0.2017822              -5.4908
        44                         -0.1658056              -4.5118
        45                         -0.1539686              -4.1897
        46                         -0.1402547              -3.8165
        47                         -0.1339119              -3.6439
        48                         -0.0396781              -1.0797
        49                         -0.0337600              -0.9187
        50                         -0.0288215              -0.7843
        51                         -0.0179043              -0.4872
       ...                                ...                  ...
        89                          1.2958381              35.2616
      -------------------------------------------------------------
                  HL-Gap            0.1169051 Eh            3.1812 eV
             Fermi-level           -0.3118339 Eh           -8.4854 eV

     #   Z          covCN         q      C6AA      α(0)
     1   6 C        3.749    -0.114    22.739     6.801
     2   6 C        3.887     0.101    18.871     6.176
     3   8 O        1.658    -0.245    18.067     5.738
     4  15 P        3.899     0.362   145.155    21.642
     5  16 S        0.925    -0.409   157.039    21.196
     6   8 O        1.658    -0.239    17.971     5.723
     7   6 C        3.894     0.096    18.952     6.189
     8   6 C        3.749    -0.114    22.742     6.802
     9  16 S        2.046    -0.144   147.133    20.415
    10   6 C        3.793     0.044    19.849     6.345
    11  16 S        2.117    -0.155   147.576    20.446
    12   6 C        3.792    -0.004    20.658     6.473
    13   6 C        3.773    -0.104    22.508     6.760
    14   1 H        0.924     0.057     2.240     2.340
    15   1 H        0.924     0.064     2.158     2.297
    16   1 H        0.924     0.062     2.178     2.308
    17   1 H        0.924     0.041     2.433     2.439
    18   1 H        0.924     0.039     2.456     2.451
    19   1 H        0.924     0.047     2.356     2.401
    20   1 H        0.924     0.045     2.378     2.411
    21   1 H        0.924     0.064     2.153     2.295
    22   1 H        0.924     0.057     2.236     2.339
    23   1 H        0.924     0.061     2.187     2.313
    24   1 H        0.925     0.058     2.223     2.332
    25   1 H        0.924     0.073     2.053     2.241
    26   1 H        0.924     0.048     2.339     2.392
    27   1 H        0.924     0.062     2.172     2.304
    28   1 H        0.924     0.045     2.381     2.413
    29   1 H        0.924     0.045     2.383     2.414
    30   1 H        0.924     0.054     2.268     2.355

 Mol. C6AA /au·bohr⁶  :      13102.576682
 Mol. C8AA /au·bohr⁸  :     414452.321566
 Mol. α(0) /au        :        180.749115


Wiberg/Mayer (AO) data.
largest (>0.10) Wiberg bond orders for each atom

 ---------------------------------------------------------------------------
     #   Z sym  total        # sym  WBO       # sym  WBO       # sym  WBO
 ---------------------------------------------------------------------------
     1   6 C    3.988 --     2 C    1.015    16 H    0.984    15 H    0.984
                            14 H    0.981
     2   6 C    3.923 --     1 C    1.015    18 H    0.970    17 H    0.967
                             3 O    0.926
     3   8 O    2.384 --     4 P    1.254     2 C    0.926
     4  15 P    5.215 --     5 S    1.553     6 O    1.277     3 O    1.254
                             9 S    0.994
     5  16 S    1.879 --     4 P    1.553     9 S    0.153
     6   8 O    2.385 --     4 P    1.277     7 C    0.922
     7   6 C    3.919 --     8 C    1.015    20 H    0.971    19 H    0.966
                             6 O    0.922
     8   6 C    3.988 --     7 C    1.015    23 H    0.984    21 H    0.984
                            22 H    0.981
     9  16 S    2.287 --     4 P    0.994    10 C    0.966     5 S    0.153
    10   6 C    3.966 --    11 S    1.009    24 H    0.970    25 H    0.966
                             9 S    0.966
    11  16 S    2.122 --    10 C    1.009    12 C    0.987
    12   6 C    3.973 --    13 C    1.026    11 S    0.987    26 H    0.973
                            27 H    0.968
    13   6 C    3.993 --    12 C    1.026    30 H    0.985    29 H    0.985
                            28 H    0.978
    14   1 H    0.995 --     1 C    0.981
    15   1 H    0.996 --     1 C    0.984
    16   1 H    0.996 --     1 C    0.984
    17   1 H    0.998 --     2 C    0.967
    18   1 H    0.998 --     2 C    0.970
    19   1 H    0.998 --     7 C    0.966
    20   1 H    0.998 --     7 C    0.971
    21   1 H    0.996 --     8 C    0.984
    22   1 H    0.995 --     8 C    0.981
    23   1 H    0.996 --     8 C    0.984
    24   1 H    0.997 --    10 C    0.970
    25   1 H    0.995 --    10 C    0.966
    26   1 H    0.998 --    12 C    0.973
    27   1 H    0.996 --    12 C    0.968
    28   1 H    0.998 --    13 C    0.978
    29   1 H    0.998 --    13 C    0.985
    30   1 H    0.997 --    13 C    0.985
 ---------------------------------------------------------------------------

Topologies differ in total number of bonds
Writing topology from bond orders to xtbtopo.mol

molecular dipole:
                 x           y           z       tot (Debye)
 q only:        0.981      -0.099       0.670
   full:        0.695       0.034       0.671       2.458
molecular quadrupole (traceless):
                xx          xy          yy          xz          yz          zz
 q only:        0.648       8.456       9.063      -9.614      10.328      -9.710
  q+dip:        0.471      12.576       7.279     -11.101       9.040      -7.750
   full:        1.012      12.468       8.204     -11.459      10.369      -9.216


           -------------------------------------------------
          | TOTAL ENERGY              -44.140416268124 Eh   |
          | GRADIENT NORM               0.059392026794 Eh/α |
          | HOMO-LUMO GAP               3.181150157058 eV   |
           -------------------------------------------------

------------------------------------------------------------------------
 * finished run on 2023/05/01 at 20:57:20.577     
------------------------------------------------------------------------
 total:
 * wall-time:     0 d,  0 h,  0 min,  0.137 sec
 *  cpu-time:     0 d,  0 h,  0 min,  0.072 sec
 * ratio c/w:     0.523 speedup
 SCF:
 * wall-time:     0 d,  0 h,  0 min,  0.106 sec
 *  cpu-time:     0 d,  0 h,  0 min,  0.054 sec
 * ratio c/w:     0.513 speedup

