      -----------------------------------------------------------      
     |                   =====================                   |     
     |                           x T B                           |     
     |                   =====================                   |     
     |                         S. Grimme                         |     
     |          Mulliken Center for Theoretical Chemistry        |     
     |                    University of Bonn                     |     
      -----------------------------------------------------------      

   * xtb version 6.4.1 (unknown) compiled by 'software@adm6701' on 2022-02-17

   xtb is free software: you can redistribute it and/or modify it under
   the terms of the GNU Lesser General Public License as published by
   the Free Software Foundation, either version 3 of the License, or
   (at your option) any later version.
   
   xtb is distributed in the hope that it will be useful,
   but WITHOUT ANY WARRANTY; without even the implied warranty of
   MERCHANTABILITY or FITNESS FOR A PARTICULAR PURPOSE.  See the
   GNU Lesser General Public License for more details.
   
   Cite this work as:
   * C. Bannwarth, E. Caldeweyher, S. Ehlert, A. Hansen, P. Pracht,
     J. Seibert, S. Spicher, S. Grimme, WIREs Comput. Mol. Sci., 2020, 11,
     e01493. DOI: 10.1002/wcms.1493
   
   for GFN2-xTB:
   * C. Bannwarth, S. Ehlert and S. Grimme., J. Chem. Theory Comput., 2019,
     15, 1652-1671. DOI: 10.1021/acs.jctc.8b01176
   for GFN1-xTB:
   * S. Grimme, C. Bannwarth, P. Shushkov, J. Chem. Theory Comput., 2017,
     13, 1989-2009. DOI: 10.1021/acs.jctc.7b00118
   for GFN0-xTB:
   * P. Pracht, E. Caldeweyher, S. Ehlert, S. Grimme, ChemRxiv, 2019, preprint.
     DOI: 10.26434/chemrxiv.8326202.v1
   for GFN-FF:
   * S. Spicher and S. Grimme, Angew. Chem. Int. Ed., 2020, 59, 15665-15673.
     DOI: 10.1002/anie.202004239
   
   for DFT-D4:
   * E. Caldeweyher, C. Bannwarth and S. Grimme, J. Chem. Phys., 2017,
     147, 034112. DOI: 10.1063/1.4993215
   * E. Caldeweyher, S. Ehlert, A. Hansen, H. Neugebauer, S. Spicher,
     C. Bannwarth and S. Grimme, J. Chem. Phys., 2019, 150, 154122.
     DOI: 10.1063/1.5090222
   * E. Caldeweyher, J.-M. Mewes, S. Ehlert and S. Grimme, Phys. Chem. Chem. Phys.
     2020, 22, 8499-8512. DOI: 10.1039/D0CP00502A
   
   for sTDA-xTB:
   * S. Grimme and C. Bannwarth, J. Chem. Phys., 2016, 145, 054103.
     DOI: 10.1063/1.4959605
   
   in the mass-spec context:
   * V. Asgeirsson, C. Bauer and S. Grimme, Chem. Sci., 2017, 8, 4879.
     DOI: 10.1039/c7sc00601b
   * J. Koopman and S. Grimme, ACS Omega 2019, 4, 12, 15120-15133.
     DOI: 10.1021/acsomega.9b02011
   
   for metadynamics refer to:
   * S. Grimme, J. Chem. Theory Comput., 2019, 155, 2847-2862
     DOI: 10.1021/acs.jctc.9b00143
   
   for SPH calculations refer to:
   * S. Spicher and S. Grimme, J. Chem. Theory Comput., 2021, 17, 1701-1714
     DOI: 10.1021/acs.jctc.0c01306
   
   with help from (in alphabetical order)
   P. Atkinson, C. Bannwarth, F. Bohle, G. Brandenburg, E. Caldeweyher
   M. Checinski, S. Dohm, S. Ehlert, S. Ehrlich, I. Gerasimov, J. Koopman
   C. Lavigne, S. Lehtola, F. März, M. Müller, F. Musil, H. Neugebauer
   J. Pisarek, C. Plett, P. Pracht, J. Seibert, P. Shushkov, S. Spicher
   M. Stahn, M. Steiner, T. Strunk, J. Stückrath, T. Rose, and J. Unsleber
   
 * started run on 2023/05/01 at 20:57:16.890     

           -------------------------------------------------
          |                Calculation Setup                |
           -------------------------------------------------

          program call               : xtb /mnt/netapp1/Store_CSIC/home/csic/qoy/jar/test/QDESCP/mol_17_rdkit_conf_2/mol_17_rdkit_conf_2.xyz --pop --wbo --acc 0.2 --gfn 2 --chrg 0 --uhf 0 --etemp 300 --input /mnt/netapp1/Store_CSIC/home/csic/qoy/jar/test/QDESCP/mol_17_rdkit_conf_2/mol_17_rdkit_conf_2_xtb.inp
          hostname                   : login209-18
          coordinate file            : /mnt/netapp1/Store_CSIC/home/csic/qoy/jar/test/QDESCP/mol_17_rdkit_conf_2/mol_17_rdkit_conf_2.xyz
          omp threads                :                     1
          number of atoms            :                    18
          number of electrons        :                    38
          charge                     :                     0
          spin                       :                   0.0
          first test random number   :      0.64682026858428

   ID    Z sym.   atoms
    1    6 C      1-5
    2    8 O      6
    3    1 H      7-18

           -------------------------------------------------
          |                 G F N 2 - x T B                 |
           -------------------------------------------------

        Reference                      10.1021/acs.jctc.8b01176
      * Hamiltonian:
        H0-scaling (s, p, d)           1.850000    2.230000    2.230000
        zeta-weighting                 0.500000
      * Dispersion:
        s8                             2.700000
        a1                             0.520000
        a2                             5.000000
        s9                             5.000000
      * Repulsion:
        kExp                           1.500000    1.000000
        rExp                           1.000000
      * Coulomb:
        alpha                          2.000000
        third order                    shell-resolved
        anisotropic                    true
        a3                             3.000000
        a5                             4.000000
        cn-shift                       1.200000
        cn-exp                         4.000000
        max-rad                        5.000000


          ...................................................
          :                      SETUP                      :
          :.................................................:
          :  # basis functions                  36          :
          :  # atomic orbitals                  36          :
          :  # shells                           24          :
          :  # electrons                        38          :
          :  max. iterations                   250          :
          :  Hamiltonian                  GFN2-xTB          :
          :  restarted?                      false          :
          :  GBSA solvation                  false          :
          :  PC potential                    false          :
          :  electronic temp.          300.0000000     K    :
          :  accuracy                    0.2000000          :
          :  -> integral cutoff          0.3198970E+02      :
          :  -> integral neglect         0.2000000E-08      :
          :  -> SCF convergence          0.2000000E-06 Eh   :
          :  -> wf. convergence          0.2000000E-04 e    :
          :  Broyden damping             0.4000000          :
          ...................................................

 iter      E             dE          RMSdq      gap      omega  full diag
   1    -21.0971006 -0.210971E+02  0.294E+00   12.27       0.0  T
   2    -21.1375641 -0.404635E-01  0.153E+00   11.97       1.0  T
   3    -21.1382371 -0.673084E-03  0.706E-01   12.04       1.0  T
   4    -21.1384246 -0.187493E-03  0.103E-01   12.06       1.0  T
   5    -21.1384456 -0.210018E-04  0.577E-02   12.07       1.0  T
   6    -21.1384464 -0.803380E-06  0.813E-03   12.07       2.9  T
   7    -21.1384468 -0.386832E-06  0.378E-03   12.07       6.2  T
   8    -21.1384468 -0.179881E-07  0.107E-03   12.07      22.0  T
   9    -21.1384468 -0.167055E-08  0.325E-04   12.07      72.6  T
  10    -21.1384468 -0.243382E-09  0.654E-05   12.07     360.3  T
  11    -21.1384468 -0.214726E-10  0.275E-05   12.07     856.0  T

   *** convergence criteria satisfied after 11 iterations ***

         #    Occupation            Energy/Eh            Energy/eV
      -------------------------------------------------------------
         1        2.0000           -0.6790345             -18.4775
       ...           ...                  ...                  ...
        13        2.0000           -0.4634845             -12.6121
        14        2.0000           -0.4569834             -12.4352
        15        2.0000           -0.4480782             -12.1928
        16        2.0000           -0.4419215             -12.0253
        17        2.0000           -0.4301647             -11.7054
        18        2.0000           -0.4276039             -11.6357
        19        2.0000           -0.4025435             -10.9538 (HOMO)
        20                          0.0411044               1.1185 (LUMO)
        21                          0.0738118               2.0085
        22                          0.0800334               2.1778
        23                          0.0911394               2.4800
        24                          0.1122399               3.0542
       ...                                ...                  ...
        36                          0.2877895               7.8312
      -------------------------------------------------------------
                  HL-Gap            0.4436480 Eh           12.0723 eV
             Fermi-level           -0.1807195 Eh           -4.9176 eV

 SCC (total)                   0 d,  0 h,  0 min,  0.063 sec
 SCC setup                      ...        0 min,  0.000 sec (  0.168%)
 Dispersion                     ...        0 min,  0.000 sec (  0.132%)
 classical contributions        ...        0 min,  0.000 sec (  0.040%)
 integral evaluation            ...        0 min,  0.001 sec (  2.139%)
 iterations                     ...        0 min,  0.058 sec ( 92.472%)
 molecular gradient             ...        0 min,  0.003 sec (  4.921%)
 printout                       ...        0 min,  0.000 sec (  0.108%)

         :::::::::::::::::::::::::::::::::::::::::::::::::::::
         ::                     SUMMARY                     ::
         :::::::::::::::::::::::::::::::::::::::::::::::::::::
         :: total energy             -20.886035570676 Eh    ::
         :: gradient norm              0.022570026884 Eh/a0 ::
         :: HOMO-LUMO gap             12.072275276914 eV    ::
         ::.................................................::
         :: SCC energy               -21.138446846403 Eh    ::
         :: -> isotropic ES            0.027473942466 Eh    ::
         :: -> anisotropic ES          0.005799208173 Eh    ::
         :: -> anisotropic XC          0.007916169212 Eh    ::
         :: -> dispersion             -0.010305972823 Eh    ::
         :: repulsion energy           0.252375408487 Eh    ::
         :: add. restraining           0.000000000000 Eh    ::
         :: total charge               0.000000000000 e     ::
         :::::::::::::::::::::::::::::::::::::::::::::::::::::

           -------------------------------------------------
          |                Property Printout                |
           -------------------------------------------------

    * Orbital Energies and Occupations

         #    Occupation            Energy/Eh            Energy/eV
      -------------------------------------------------------------
         1        2.0000           -0.6790345             -18.4775
       ...           ...                  ...                  ...
         7        2.0000           -0.5455431             -14.8450
         8        2.0000           -0.5309956             -14.4491
         9        2.0000           -0.5174118             -14.0795
        10        2.0000           -0.4985032             -13.5650
        11        2.0000           -0.4929913             -13.4150
        12        2.0000           -0.4840636             -13.1720
        13        2.0000           -0.4634845             -12.6121
        14        2.0000           -0.4569834             -12.4352
        15        2.0000           -0.4480782             -12.1928
        16        2.0000           -0.4419215             -12.0253
        17        2.0000           -0.4301647             -11.7054
        18        2.0000           -0.4276039             -11.6357
        19        2.0000           -0.4025435             -10.9538 (HOMO)
        20                          0.0411044               1.1185 (LUMO)
        21                          0.0738118               2.0085
        22                          0.0800334               2.1778
        23                          0.0911394               2.4800
        24                          0.1122399               3.0542
        25                          0.1361487               3.7048
        26                          0.1456115               3.9623
        27                          0.1754605               4.7745
        28                          0.1765940               4.8054
        29                          0.1936387               5.2692
        30                          0.2103929               5.7251
       ...                                ...                  ...
        36                          0.2877895               7.8312
      -------------------------------------------------------------
                  HL-Gap            0.4436480 Eh           12.0723 eV
             Fermi-level           -0.1807195 Eh           -4.9176 eV

     #   Z          covCN         q      C6AA      α(0)
     1   6 C        3.749    -0.101    22.496     6.765
     2   6 C        3.801    -0.056    21.579     6.614
     3   6 C        3.847    -0.024    20.973     6.514
     4   6 C        3.752    -0.104    22.545     6.771
     5   6 C        3.675     0.078    19.498     6.327
     6   8 O        1.653    -0.444    21.725     6.292
     7   1 H        0.924     0.033     2.541     2.493
     8   1 H        0.924     0.034     2.530     2.488
     9   1 H        0.924     0.029     2.602     2.523
    10   1 H        0.924     0.033     2.541     2.493
    11   1 H        0.924     0.033     2.550     2.497
    12   1 H        0.924     0.028     2.613     2.528
    13   1 H        0.924     0.036     2.500     2.472
    14   1 H        0.924     0.031     2.575     2.510
    15   1 H        0.924     0.046     2.366     2.405
    16   1 H        0.924     0.017     2.779     2.607
    17   1 H        0.924     0.044     2.402     2.424
    18   1 H        0.804     0.287     0.761     1.371

 Mol. C6AA /au·bohr⁶  :       2126.384832
 Mol. C8AA /au·bohr⁸  :      43674.120620
 Mol. α(0) /au        :         68.092973


Wiberg/Mayer (AO) data.
largest (>0.10) Wiberg bond orders for each atom

 ---------------------------------------------------------------------------
     #   Z sym  total        # sym  WBO       # sym  WBO       # sym  WBO
 ---------------------------------------------------------------------------
     1   6 C    3.997 --     2 C    1.020     8 H    0.987     7 H    0.987
                             9 H    0.986
     2   6 C    3.997 --     1 C    1.020     3 C    0.995    10 H    0.977
                            11 H    0.975
     3   6 C    3.995 --     4 C    1.008     2 C    0.995     5 C    0.987
                            12 H    0.968
     4   6 C    3.995 --     3 C    1.008    14 H    0.987    13 H    0.986
                            15 H    0.986
     5   6 C    3.957 --     6 O    0.997     3 C    0.987    17 H    0.972
                            16 H    0.971
     6   8 O    1.956 --     5 C    0.997    18 H    0.901
     7   1 H    0.999 --     1 C    0.987
     8   1 H    0.999 --     1 C    0.987
     9   1 H    0.999 --     1 C    0.986
    10   1 H    0.999 --     2 C    0.977
    11   1 H    0.999 --     2 C    0.975
    12   1 H    0.999 --     3 C    0.968
    13   1 H    0.998 --     4 C    0.986
    14   1 H    0.999 --     4 C    0.987
    15   1 H    0.998 --     4 C    0.986
    16   1 H    1.000 --     5 C    0.971
    17   1 H    0.998 --     5 C    0.972
    18   1 H    0.918 --     6 O    0.901
 ---------------------------------------------------------------------------

Topologies differ in total number of bonds
Writing topology from bond orders to xtbtopo.mol

molecular dipole:
                 x           y           z       tot (Debye)
 q only:        0.564      -0.023       0.021
   full:        0.776      -0.070       0.098       1.996
molecular quadrupole (traceless):
                xx          xy          yy          xz          yz          zz
 q only:       -4.268       0.000       1.558       1.444       0.610       2.709
  q+dip:       -5.891       0.730       2.144       1.680       0.937       3.747
   full:       -5.871       0.431       2.028       1.814       0.944       3.844


           -------------------------------------------------
          | TOTAL ENERGY              -20.886035570676 Eh   |
          | GRADIENT NORM               0.022570026884 Eh/α |
          | HOMO-LUMO GAP              12.072275276914 eV   |
           -------------------------------------------------

------------------------------------------------------------------------
 * finished run on 2023/05/01 at 20:57:16.978     
------------------------------------------------------------------------
 total:
 * wall-time:     0 d,  0 h,  0 min,  0.088 sec
 *  cpu-time:     0 d,  0 h,  0 min,  0.039 sec
 * ratio c/w:     0.443 speedup
 SCF:
 * wall-time:     0 d,  0 h,  0 min,  0.063 sec
 *  cpu-time:     0 d,  0 h,  0 min,  0.025 sec
 * ratio c/w:     0.395 speedup

