      -----------------------------------------------------------      
     |                   =====================                   |     
     |                           x T B                           |     
     |                   =====================                   |     
     |                         S. Grimme                         |     
     |          Mulliken Center for Theoretical Chemistry        |     
     |                    University of Bonn                     |     
      -----------------------------------------------------------      

   * xtb version 6.4.1 (unknown) compiled by 'software@adm6701' on 2022-02-17

   xtb is free software: you can redistribute it and/or modify it under
   the terms of the GNU Lesser General Public License as published by
   the Free Software Foundation, either version 3 of the License, or
   (at your option) any later version.
   
   xtb is distributed in the hope that it will be useful,
   but WITHOUT ANY WARRANTY; without even the implied warranty of
   MERCHANTABILITY or FITNESS FOR A PARTICULAR PURPOSE.  See the
   GNU Lesser General Public License for more details.
   
   Cite this work as:
   * C. Bannwarth, E. Caldeweyher, S. Ehlert, A. Hansen, P. Pracht,
     J. Seibert, S. Spicher, S. Grimme, WIREs Comput. Mol. Sci., 2020, 11,
     e01493. DOI: 10.1002/wcms.1493
   
   for GFN2-xTB:
   * C. Bannwarth, S. Ehlert and S. Grimme., J. Chem. Theory Comput., 2019,
     15, 1652-1671. DOI: 10.1021/acs.jctc.8b01176
   for GFN1-xTB:
   * S. Grimme, C. Bannwarth, P. Shushkov, J. Chem. Theory Comput., 2017,
     13, 1989-2009. DOI: 10.1021/acs.jctc.7b00118
   for GFN0-xTB:
   * P. Pracht, E. Caldeweyher, S. Ehlert, S. Grimme, ChemRxiv, 2019, preprint.
     DOI: 10.26434/chemrxiv.8326202.v1
   for GFN-FF:
   * S. Spicher and S. Grimme, Angew. Chem. Int. Ed., 2020, 59, 15665-15673.
     DOI: 10.1002/anie.202004239
   
   for DFT-D4:
   * E. Caldeweyher, C. Bannwarth and S. Grimme, J. Chem. Phys., 2017,
     147, 034112. DOI: 10.1063/1.4993215
   * E. Caldeweyher, S. Ehlert, A. Hansen, H. Neugebauer, S. Spicher,
     C. Bannwarth and S. Grimme, J. Chem. Phys., 2019, 150, 154122.
     DOI: 10.1063/1.5090222
   * E. Caldeweyher, J.-M. Mewes, S. Ehlert and S. Grimme, Phys. Chem. Chem. Phys.
     2020, 22, 8499-8512. DOI: 10.1039/D0CP00502A
   
   for sTDA-xTB:
   * S. Grimme and C. Bannwarth, J. Chem. Phys., 2016, 145, 054103.
     DOI: 10.1063/1.4959605
   
   in the mass-spec context:
   * V. Asgeirsson, C. Bauer and S. Grimme, Chem. Sci., 2017, 8, 4879.
     DOI: 10.1039/c7sc00601b
   * J. Koopman and S. Grimme, ACS Omega 2019, 4, 12, 15120-15133.
     DOI: 10.1021/acsomega.9b02011
   
   for metadynamics refer to:
   * S. Grimme, J. Chem. Theory Comput., 2019, 155, 2847-2862
     DOI: 10.1021/acs.jctc.9b00143
   
   for SPH calculations refer to:
   * S. Spicher and S. Grimme, J. Chem. Theory Comput., 2021, 17, 1701-1714
     DOI: 10.1021/acs.jctc.0c01306
   
   with help from (in alphabetical order)
   P. Atkinson, C. Bannwarth, F. Bohle, G. Brandenburg, E. Caldeweyher
   M. Checinski, S. Dohm, S. Ehlert, S. Ehrlich, I. Gerasimov, J. Koopman
   C. Lavigne, S. Lehtola, F. März, M. Müller, F. Musil, H. Neugebauer
   J. Pisarek, C. Plett, P. Pracht, J. Seibert, P. Shushkov, S. Spicher
   M. Stahn, M. Steiner, T. Strunk, J. Stückrath, T. Rose, and J. Unsleber
   
 * started run on 2023/05/01 at 20:57:28.051     

           -------------------------------------------------
          |                Calculation Setup                |
           -------------------------------------------------

          program call               : xtb /mnt/netapp1/Store_CSIC/home/csic/qoy/jar/test/QDESCP/mol_36_rdkit_conf_2/mol_36_rdkit_conf_2.xyz --pop --wbo --acc 0.2 --gfn 2 --chrg 0 --uhf 0 --etemp 300 --input /mnt/netapp1/Store_CSIC/home/csic/qoy/jar/test/QDESCP/mol_36_rdkit_conf_2/mol_36_rdkit_conf_2_xtb.inp
          hostname                   : login209-18
          coordinate file            : /mnt/netapp1/Store_CSIC/home/csic/qoy/jar/test/QDESCP/mol_36_rdkit_conf_2/mol_36_rdkit_conf_2.xyz
          omp threads                :                     1
          number of atoms            :                    16
          number of electrons        :                    36
          charge                     :                     0
          spin                       :                   0.0
          first test random number   :      0.40368473777231

   ID    Z sym.   atoms
    1    6 C      1-5
    2    8 O      6
    3    1 H      7-16

           -------------------------------------------------
          |                 G F N 2 - x T B                 |
           -------------------------------------------------

        Reference                      10.1021/acs.jctc.8b01176
      * Hamiltonian:
        H0-scaling (s, p, d)           1.850000    2.230000    2.230000
        zeta-weighting                 0.500000
      * Dispersion:
        s8                             2.700000
        a1                             0.520000
        a2                             5.000000
        s9                             5.000000
      * Repulsion:
        kExp                           1.500000    1.000000
        rExp                           1.000000
      * Coulomb:
        alpha                          2.000000
        third order                    shell-resolved
        anisotropic                    true
        a3                             3.000000
        a5                             4.000000
        cn-shift                       1.200000
        cn-exp                         4.000000
        max-rad                        5.000000


          ...................................................
          :                      SETUP                      :
          :.................................................:
          :  # basis functions                  34          :
          :  # atomic orbitals                  34          :
          :  # shells                           22          :
          :  # electrons                        36          :
          :  max. iterations                   250          :
          :  Hamiltonian                  GFN2-xTB          :
          :  restarted?                      false          :
          :  GBSA solvation                  false          :
          :  PC potential                    false          :
          :  electronic temp.          300.0000000     K    :
          :  accuracy                    0.2000000          :
          :  -> integral cutoff          0.3198970E+02      :
          :  -> integral neglect         0.2000000E-08      :
          :  -> SCF convergence          0.2000000E-06 Eh   :
          :  -> wf. convergence          0.2000000E-04 e    :
          :  Broyden damping             0.4000000          :
          ...................................................

 iter      E             dE          RMSdq      gap      omega  full diag
   1    -20.0295574 -0.200296E+02  0.410E+00    4.43       0.0  T
   2    -20.0852487 -0.556914E-01  0.204E+00    3.37       1.0  T
   3    -20.0912390 -0.599026E-02  0.145E+00    3.87       1.0  T
   4    -20.0962214 -0.498237E-02  0.214E-01    3.57       1.0  T
   5    -20.0963918 -0.170438E-03  0.909E-02    3.63       1.0  T
   6    -20.0964181 -0.263386E-04  0.313E-02    3.62       1.0  T
   7    -20.0964187 -0.549250E-06  0.975E-03    3.62       2.6  T
   8    -20.0964188 -0.120041E-06  0.215E-03    3.62      11.6  T
   9    -20.0964188 -0.199377E-08  0.589E-04    3.62      42.4  T
  10    -20.0964188 -0.172013E-08  0.217E-04    3.62     115.2  T
  11    -20.0964188 -0.711395E-10  0.461E-05    3.62     541.8  T
  12    -20.0964188 -0.188649E-10  0.127E-05    3.62    1961.5  T

   *** convergence criteria satisfied after 12 iterations ***

         #    Occupation            Energy/Eh            Energy/eV
      -------------------------------------------------------------
         1        2.0000           -0.7121187             -19.3777
       ...           ...                  ...                  ...
        12        2.0000           -0.4908709             -13.3573
        13        2.0000           -0.4842422             -13.1769
        14        2.0000           -0.4652165             -12.6592
        15        2.0000           -0.4505534             -12.2602
        16        2.0000           -0.4423225             -12.0362
        17        2.0000           -0.4392416             -11.9524
        18        2.0000           -0.4049237             -11.0185 (HOMO)
        19                         -0.2718752              -7.3981 (LUMO)
        20                          0.0650283               1.7695
        21                          0.0885674               2.4100
        22                          0.0926030               2.5199
        23                          0.1194549               3.2505
       ...                                ...                  ...
        34                          0.5249959              14.2859
      -------------------------------------------------------------
                  HL-Gap            0.1330485 Eh            3.6204 eV
             Fermi-level           -0.3383994 Eh           -9.2083 eV

 SCC (total)                   0 d,  0 h,  0 min,  0.081 sec
 SCC setup                      ...        0 min,  0.000 sec (  0.134%)
 Dispersion                     ...        0 min,  0.000 sec (  0.095%)
 classical contributions        ...        0 min,  0.000 sec (  0.025%)
 integral evaluation            ...        0 min,  0.001 sec (  1.177%)
 iterations                     ...        0 min,  0.077 sec ( 95.395%)
 molecular gradient             ...        0 min,  0.002 sec (  3.076%)
 printout                       ...        0 min,  0.000 sec (  0.080%)

         :::::::::::::::::::::::::::::::::::::::::::::::::::::
         ::                     SUMMARY                     ::
         :::::::::::::::::::::::::::::::::::::::::::::::::::::
         :: total energy             -19.846734636615 Eh    ::
         :: gradient norm              0.059766690066 Eh/a0 ::
         :: HOMO-LUMO gap              3.620435128552 eV    ::
         ::.................................................::
         :: SCC energy               -20.096418822847 Eh    ::
         :: -> isotropic ES            0.024441831778 Eh    ::
         :: -> anisotropic ES          0.003740471735 Eh    ::
         :: -> anisotropic XC          0.009937380436 Eh    ::
         :: -> dispersion             -0.008412607076 Eh    ::
         :: repulsion energy           0.249674077395 Eh    ::
         :: add. restraining           0.000000000000 Eh    ::
         :: total charge               0.000000000000 e     ::
         :::::::::::::::::::::::::::::::::::::::::::::::::::::

           -------------------------------------------------
          |                Property Printout                |
           -------------------------------------------------

    * Orbital Energies and Occupations

         #    Occupation            Energy/Eh            Energy/eV
      -------------------------------------------------------------
         1        2.0000           -0.7121187             -19.3777
       ...           ...                  ...                  ...
         6        2.0000           -0.5705409             -15.5252
         7        2.0000           -0.5529912             -15.0477
         8        2.0000           -0.5387183             -14.6593
         9        2.0000           -0.5299090             -14.4196
        10        2.0000           -0.5161449             -14.0450
        11        2.0000           -0.5037015             -13.7064
        12        2.0000           -0.4908709             -13.3573
        13        2.0000           -0.4842422             -13.1769
        14        2.0000           -0.4652165             -12.6592
        15        2.0000           -0.4505534             -12.2602
        16        2.0000           -0.4423225             -12.0362
        17        2.0000           -0.4392416             -11.9524
        18        2.0000           -0.4049237             -11.0185 (HOMO)
        19                         -0.2718752              -7.3981 (LUMO)
        20                          0.0650283               1.7695
        21                          0.0885674               2.4100
        22                          0.0926030               2.5199
        23                          0.1194549               3.2505
        24                          0.1264260               3.4402
        25                          0.1302669               3.5447
        26                          0.1489657               4.0536
        27                          0.1751480               4.7660
        28                          0.1990127               5.4154
        29                          0.2108189               5.7367
       ...                                ...                  ...
        34                          0.5249959              14.2859
      -------------------------------------------------------------
                  HL-Gap            0.1330485 Eh            3.6204 eV
             Fermi-level           -0.3383994 Eh           -9.2083 eV

     #   Z          covCN         q      C6AA      α(0)
     1   6 C        3.749    -0.103    22.530     6.770
     2   6 C        3.799    -0.053    21.521     6.605
     3   6 C        3.804    -0.053    21.521     6.604
     4   6 C        3.802    -0.081    22.049     6.685
     5   6 C        2.760     0.207    23.612     7.958
     6   8 O        0.856    -0.333    20.388     6.054
     7   1 H        0.924     0.036     2.498     2.471
     8   1 H        0.924     0.036     2.508     2.477
     9   1 H        0.924     0.035     2.512     2.478
    10   1 H        0.924     0.036     2.505     2.475
    11   1 H        0.924     0.037     2.494     2.470
    12   1 H        0.924     0.036     2.503     2.474
    13   1 H        0.924     0.037     2.487     2.466
    14   1 H        0.924     0.069     2.099     2.266
    15   1 H        0.924     0.067     2.113     2.273
    16   1 H        0.923     0.027     2.634     2.538

 Mol. C6AA /au·bohr⁶  :       1900.119079
 Mol. C8AA /au·bohr⁸  :      40356.138600
 Mol. α(0) /au        :         65.065480


Wiberg/Mayer (AO) data.
largest (>0.10) Wiberg bond orders for each atom

 ---------------------------------------------------------------------------
     #   Z sym  total        # sym  WBO       # sym  WBO       # sym  WBO
 ---------------------------------------------------------------------------
     1   6 C    3.996 --     2 C    1.021     9 H    0.987     7 H    0.987
                             8 H    0.986
     2   6 C    3.997 --     1 C    1.021     3 C    1.005    11 H    0.977
                            10 H    0.976
     3   6 C    3.994 --     2 C    1.005     4 C    0.987    12 H    0.977
                            13 H    0.976
     4   6 C    3.994 --     5 C    1.015     3 C    0.987    15 H    0.971
                            14 H    0.941
     5   6 C    3.912 --     6 O    1.915     4 C    1.015    16 H    0.938
     6   8 O    2.070 --     5 C    1.915
     7   1 H    0.998 --     1 C    0.987
     8   1 H    0.999 --     1 C    0.986
     9   1 H    0.999 --     1 C    0.987
    10   1 H    0.998 --     2 C    0.976
    11   1 H    0.999 --     2 C    0.977
    12   1 H    0.999 --     3 C    0.977
    13   1 H    0.999 --     3 C    0.976
    14   1 H    0.995 --     4 C    0.941
    15   1 H    0.995 --     4 C    0.971
    16   1 H    0.999 --     5 C    0.938
 ---------------------------------------------------------------------------

Topologies differ in total number of bonds
Writing topology from bond orders to xtbtopo.mol

molecular dipole:
                 x           y           z       tot (Debye)
 q only:       -1.118       0.359      -0.105
   full:       -1.229       0.513      -0.082       3.392
molecular quadrupole (traceless):
                xx          xy          yy          xz          yz          zz
 q only:       -9.104       3.880       4.437      -2.240       0.822       4.667
  q+dip:      -11.833       5.316       6.497      -2.623       1.545       5.336
   full:      -11.779       5.369       5.525      -2.687       1.188       6.254


           -------------------------------------------------
          | TOTAL ENERGY              -19.846734636615 Eh   |
          | GRADIENT NORM               0.059766690066 Eh/α |
          | HOMO-LUMO GAP               3.620435128552 eV   |
           -------------------------------------------------

------------------------------------------------------------------------
 * finished run on 2023/05/01 at 20:57:28.165     
------------------------------------------------------------------------
 total:
 * wall-time:     0 d,  0 h,  0 min,  0.113 sec
 *  cpu-time:     0 d,  0 h,  0 min,  0.036 sec
 * ratio c/w:     0.322 speedup
 SCF:
 * wall-time:     0 d,  0 h,  0 min,  0.081 sec
 *  cpu-time:     0 d,  0 h,  0 min,  0.021 sec
 * ratio c/w:     0.256 speedup

