      -----------------------------------------------------------      
     |                   =====================                   |     
     |                           x T B                           |     
     |                   =====================                   |     
     |                         S. Grimme                         |     
     |          Mulliken Center for Theoretical Chemistry        |     
     |                    University of Bonn                     |     
      -----------------------------------------------------------      

   * xtb version 6.4.1 (unknown) compiled by 'software@adm6701' on 2022-02-17

   xtb is free software: you can redistribute it and/or modify it under
   the terms of the GNU Lesser General Public License as published by
   the Free Software Foundation, either version 3 of the License, or
   (at your option) any later version.
   
   xtb is distributed in the hope that it will be useful,
   but WITHOUT ANY WARRANTY; without even the implied warranty of
   MERCHANTABILITY or FITNESS FOR A PARTICULAR PURPOSE.  See the
   GNU Lesser General Public License for more details.
   
   Cite this work as:
   * C. Bannwarth, E. Caldeweyher, S. Ehlert, A. Hansen, P. Pracht,
     J. Seibert, S. Spicher, S. Grimme, WIREs Comput. Mol. Sci., 2020, 11,
     e01493. DOI: 10.1002/wcms.1493
   
   for GFN2-xTB:
   * C. Bannwarth, S. Ehlert and S. Grimme., J. Chem. Theory Comput., 2019,
     15, 1652-1671. DOI: 10.1021/acs.jctc.8b01176
   for GFN1-xTB:
   * S. Grimme, C. Bannwarth, P. Shushkov, J. Chem. Theory Comput., 2017,
     13, 1989-2009. DOI: 10.1021/acs.jctc.7b00118
   for GFN0-xTB:
   * P. Pracht, E. Caldeweyher, S. Ehlert, S. Grimme, ChemRxiv, 2019, preprint.
     DOI: 10.26434/chemrxiv.8326202.v1
   for GFN-FF:
   * S. Spicher and S. Grimme, Angew. Chem. Int. Ed., 2020, 59, 15665-15673.
     DOI: 10.1002/anie.202004239
   
   for DFT-D4:
   * E. Caldeweyher, C. Bannwarth and S. Grimme, J. Chem. Phys., 2017,
     147, 034112. DOI: 10.1063/1.4993215
   * E. Caldeweyher, S. Ehlert, A. Hansen, H. Neugebauer, S. Spicher,
     C. Bannwarth and S. Grimme, J. Chem. Phys., 2019, 150, 154122.
     DOI: 10.1063/1.5090222
   * E. Caldeweyher, J.-M. Mewes, S. Ehlert and S. Grimme, Phys. Chem. Chem. Phys.
     2020, 22, 8499-8512. DOI: 10.1039/D0CP00502A
   
   for sTDA-xTB:
   * S. Grimme and C. Bannwarth, J. Chem. Phys., 2016, 145, 054103.
     DOI: 10.1063/1.4959605
   
   in the mass-spec context:
   * V. Asgeirsson, C. Bauer and S. Grimme, Chem. Sci., 2017, 8, 4879.
     DOI: 10.1039/c7sc00601b
   * J. Koopman and S. Grimme, ACS Omega 2019, 4, 12, 15120-15133.
     DOI: 10.1021/acsomega.9b02011
   
   for metadynamics refer to:
   * S. Grimme, J. Chem. Theory Comput., 2019, 155, 2847-2862
     DOI: 10.1021/acs.jctc.9b00143
   
   for SPH calculations refer to:
   * S. Spicher and S. Grimme, J. Chem. Theory Comput., 2021, 17, 1701-1714
     DOI: 10.1021/acs.jctc.0c01306
   
   with help from (in alphabetical order)
   P. Atkinson, C. Bannwarth, F. Bohle, G. Brandenburg, E. Caldeweyher
   M. Checinski, S. Dohm, S. Ehlert, S. Ehrlich, I. Gerasimov, J. Koopman
   C. Lavigne, S. Lehtola, F. März, M. Müller, F. Musil, H. Neugebauer
   J. Pisarek, C. Plett, P. Pracht, J. Seibert, P. Shushkov, S. Spicher
   M. Stahn, M. Steiner, T. Strunk, J. Stückrath, T. Rose, and J. Unsleber
   
 * started run on 2023/05/01 at 20:57:32.677     

           -------------------------------------------------
          |                Calculation Setup                |
           -------------------------------------------------

          program call               : xtb /mnt/netapp1/Store_CSIC/home/csic/qoy/jar/test/QDESCP/mol_51_rdkit_conf_2/mol_51_rdkit_conf_2.xyz --pop --wbo --acc 0.2 --gfn 2 --chrg 0 --uhf 0 --etemp 300 --input /mnt/netapp1/Store_CSIC/home/csic/qoy/jar/test/QDESCP/mol_51_rdkit_conf_2/mol_51_rdkit_conf_2_xtb.inp
          hostname                   : login209-18
          coordinate file            : /mnt/netapp1/Store_CSIC/home/csic/qoy/jar/test/QDESCP/mol_51_rdkit_conf_2/mol_51_rdkit_conf_2.xyz
          omp threads                :                     1
          number of atoms            :                    22
          number of electrons        :                    46
          charge                     :                     0
          spin                       :                   0.0
          first test random number   :      0.54383788966863

   ID    Z sym.   atoms
    1    6 C      1-8
    2    1 H      9-22

           -------------------------------------------------
          |                 G F N 2 - x T B                 |
           -------------------------------------------------

        Reference                      10.1021/acs.jctc.8b01176
      * Hamiltonian:
        H0-scaling (s, p, d)           1.850000    2.230000    2.230000
        zeta-weighting                 0.500000
      * Dispersion:
        s8                             2.700000
        a1                             0.520000
        a2                             5.000000
        s9                             5.000000
      * Repulsion:
        kExp                           1.500000    1.000000
        rExp                           1.000000
      * Coulomb:
        alpha                          2.000000
        third order                    shell-resolved
        anisotropic                    true
        a3                             3.000000
        a5                             4.000000
        cn-shift                       1.200000
        cn-exp                         4.000000
        max-rad                        5.000000


          ...................................................
          :                      SETUP                      :
          :.................................................:
          :  # basis functions                  46          :
          :  # atomic orbitals                  46          :
          :  # shells                           30          :
          :  # electrons                        46          :
          :  max. iterations                   250          :
          :  Hamiltonian                  GFN2-xTB          :
          :  restarted?                      false          :
          :  GBSA solvation                  false          :
          :  PC potential                    false          :
          :  electronic temp.          300.0000000     K    :
          :  accuracy                    0.2000000          :
          :  -> integral cutoff          0.3198970E+02      :
          :  -> integral neglect         0.2000000E-08      :
          :  -> SCF convergence          0.2000000E-06 Eh   :
          :  -> wf. convergence          0.2000000E-04 e    :
          :  Broyden damping             0.4000000          :
          ...................................................

 iter      E             dE          RMSdq      gap      omega  full diag
   1    -24.5817586 -0.245818E+02  0.414E+00    7.00       0.0  T
   2    -24.6218234 -0.400648E-01  0.245E+00    6.93       1.0  T
   3    -24.5919051  0.299182E-01  0.148E+00    6.93       1.0  T
   4    -24.6210707 -0.291656E-01  0.647E-01    6.83       1.0  T
   5    -24.6286100 -0.753923E-02  0.834E-02    6.83       1.0  T
   6    -24.6286356 -0.255960E-04  0.330E-02    6.84       1.0  T
   7    -24.6286376 -0.200835E-05  0.124E-02    6.84       1.7  T
   8    -24.6286381 -0.488744E-06  0.165E-03    6.84      12.9  T
   9    -24.6286381 -0.495998E-08  0.672E-04    6.84      31.7  T
  10    -24.6286381 -0.417327E-09  0.156E-04    6.84     136.5  T
  11    -24.6286381 -0.165382E-09  0.488E-05    6.84     436.9  T

   *** convergence criteria satisfied after 11 iterations ***

         #    Occupation            Energy/Eh            Energy/eV
      -------------------------------------------------------------
         1        2.0000           -0.6246145             -16.9966
       ...           ...                  ...                  ...
        17        2.0000           -0.4446393             -12.0993
        18        2.0000           -0.4379384             -11.9169
        19        2.0000           -0.4233744             -11.5206
        20        2.0000           -0.4210253             -11.4567
        21        2.0000           -0.4171066             -11.3500
        22        2.0000           -0.3997870             -10.8788
        23        2.0000           -0.3967463             -10.7960 (HOMO)
        24                         -0.1453950              -3.9564 (LUMO)
        25                         -0.1412879              -3.8446
        26                          0.0458545               1.2478
        27                          0.0757004               2.0599
        28                          0.0936995               2.5497
       ...                                ...                  ...
        46                          1.3976606              38.0323
      -------------------------------------------------------------
                  HL-Gap            0.2513514 Eh            6.8396 eV
             Fermi-level           -0.2710706 Eh           -7.3762 eV

 SCC (total)                   0 d,  0 h,  0 min,  0.064 sec
 SCC setup                      ...        0 min,  0.000 sec (  0.189%)
 Dispersion                     ...        0 min,  0.000 sec (  0.205%)
 classical contributions        ...        0 min,  0.000 sec (  0.043%)
 integral evaluation            ...        0 min,  0.002 sec (  2.615%)
 iterations                     ...        0 min,  0.058 sec ( 89.944%)
 molecular gradient             ...        0 min,  0.004 sec (  6.893%)
 printout                       ...        0 min,  0.000 sec (  0.095%)

         :::::::::::::::::::::::::::::::::::::::::::::::::::::
         ::                     SUMMARY                     ::
         :::::::::::::::::::::::::::::::::::::::::::::::::::::
         :: total energy             -24.201124347383 Eh    ::
         :: gradient norm              0.022781838753 Eh/a0 ::
         :: HOMO-LUMO gap              6.839618796702 eV    ::
         ::.................................................::
         :: SCC energy               -24.628638066049 Eh    ::
         :: -> isotropic ES            0.004685885304 Eh    ::
         :: -> anisotropic ES          0.005572400406 Eh    ::
         :: -> anisotropic XC          0.020688900280 Eh    ::
         :: -> dispersion             -0.013928670628 Eh    ::
         :: repulsion energy           0.427485799429 Eh    ::
         :: add. restraining           0.000000000000 Eh    ::
         :: total charge              -0.000000000000 e     ::
         :::::::::::::::::::::::::::::::::::::::::::::::::::::

           -------------------------------------------------
          |                Property Printout                |
           -------------------------------------------------

    * Orbital Energies and Occupations

         #    Occupation            Energy/Eh            Energy/eV
      -------------------------------------------------------------
         1        2.0000           -0.6246145             -16.9966
       ...           ...                  ...                  ...
        11        2.0000           -0.4993463             -13.5879
        12        2.0000           -0.4869615             -13.2509
        13        2.0000           -0.4813163             -13.0973
        14        2.0000           -0.4714135             -12.8278
        15        2.0000           -0.4617626             -12.5652
        16        2.0000           -0.4535465             -12.3416
        17        2.0000           -0.4446393             -12.0993
        18        2.0000           -0.4379384             -11.9169
        19        2.0000           -0.4233744             -11.5206
        20        2.0000           -0.4210253             -11.4567
        21        2.0000           -0.4171066             -11.3500
        22        2.0000           -0.3997870             -10.8788
        23        2.0000           -0.3967463             -10.7960 (HOMO)
        24                         -0.1453950              -3.9564 (LUMO)
        25                         -0.1412879              -3.8446
        26                          0.0458545               1.2478
        27                          0.0757004               2.0599
        28                          0.0936995               2.5497
        29                          0.1121976               3.0531
        30                          0.1185951               3.2271
        31                          0.1294224               3.5218
        32                          0.1411587               3.8411
        33                          0.1428462               3.8870
        34                          0.1682476               4.5783
       ...                                ...                  ...
        46                          1.3976606              38.0323
      -------------------------------------------------------------
                  HL-Gap            0.2513514 Eh            6.8396 eV
             Fermi-level           -0.2710706 Eh           -7.3762 eV

     #   Z          covCN         q      C6AA      α(0)
     1   6 C        3.749    -0.098    22.438     6.756
     2   6 C        3.798    -0.050    21.480     6.599
     3   6 C        3.799    -0.057    21.596     6.617
     4   6 C        3.799    -0.056    21.581     6.614
     5   6 C        3.802    -0.050    21.462     6.596
     6   6 C        3.802    -0.038    21.258     6.564
     7   6 C        1.964    -0.027    31.777     9.103
     8   6 C        1.908    -0.114    34.286     9.457
     9   1 H        0.924     0.029     2.606     2.525
    10   1 H        0.924     0.034     2.535     2.490
    11   1 H        0.924     0.032     2.555     2.500
    12   1 H        0.924     0.026     2.642     2.542
    13   1 H        0.924     0.029     2.607     2.525
    14   1 H        0.924     0.029     2.607     2.525
    15   1 H        0.924     0.026     2.640     2.541
    16   1 H        0.924     0.031     2.569     2.506
    17   1 H        0.924     0.032     2.562     2.503
    18   1 H        0.924     0.032     2.554     2.499
    19   1 H        0.924     0.031     2.574     2.509
    20   1 H        0.924     0.046     2.366     2.405
    21   1 H        0.924     0.046     2.377     2.411
    22   1 H        0.927     0.068     2.112     2.272

 Mol. C6AA /au·bohr⁶  :       3785.527612
 Mol. C8AA /au·bohr⁸  :      83349.694202
 Mol. α(0) /au        :         93.060079


Wiberg/Mayer (AO) data.
largest (>0.10) Wiberg bond orders for each atom

 ---------------------------------------------------------------------------
     #   Z sym  total        # sym  WBO       # sym  WBO       # sym  WBO
 ---------------------------------------------------------------------------
     1   6 C    3.997 --     2 C    1.021    11 H    0.987     9 H    0.987
                            10 H    0.986
     2   6 C    3.998 --     1 C    1.021     3 C    1.007    12 H    0.978
                            13 H    0.976
     3   6 C    3.997 --     2 C    1.007     4 C    1.007    15 H    0.978
                            14 H    0.977
     4   6 C    3.997 --     5 C    1.009     3 C    1.007    17 H    0.976
                            16 H    0.976
     5   6 C    3.997 --     4 C    1.009     6 C    0.989    18 H    0.978
                            19 H    0.975
     6   6 C    3.997 --     7 C    1.045     5 C    0.989    20 H    0.958
                            21 H    0.957
     7   6 C    3.976 --     8 C    2.902     6 C    1.045
     8   6 C    3.973 --     7 C    2.902    22 H    0.971
     9   1 H    0.999 --     1 C    0.987
    10   1 H    0.999 --     1 C    0.986
    11   1 H    0.999 --     1 C    0.987
    12   1 H    0.999 --     2 C    0.978
    13   1 H    0.999 --     2 C    0.976
    14   1 H    0.999 --     3 C    0.977
    15   1 H    0.999 --     3 C    0.978
    16   1 H    0.999 --     4 C    0.976
    17   1 H    0.999 --     4 C    0.976
    18   1 H    0.999 --     5 C    0.978
    19   1 H    0.999 --     5 C    0.975
    20   1 H    0.998 --     6 C    0.958
    21   1 H    0.998 --     6 C    0.957
    22   1 H    0.995 --     8 C    0.971
 ---------------------------------------------------------------------------

Topologies differ in total number of bonds
Writing topology from bond orders to xtbtopo.mol

molecular dipole:
                 x           y           z       tot (Debye)
 q only:       -0.079      -0.154       0.208
   full:       -0.078      -0.161       0.204       0.691
molecular quadrupole (traceless):
                xx          xy          yy          xz          yz          zz
 q only:       -0.282      -1.146      -0.260       1.381       0.546       0.542
  q+dip:       -2.053      -1.147      -0.337       0.505      -1.952       2.391
   full:       -0.970      -1.178      -0.334       1.043      -0.490       1.304


           -------------------------------------------------
          | TOTAL ENERGY              -24.201124347383 Eh   |
          | GRADIENT NORM               0.022781838753 Eh/α |
          | HOMO-LUMO GAP               6.839618796702 eV   |
           -------------------------------------------------

------------------------------------------------------------------------
 * finished run on 2023/05/01 at 20:57:32.765     
------------------------------------------------------------------------
 total:
 * wall-time:     0 d,  0 h,  0 min,  0.088 sec
 *  cpu-time:     0 d,  0 h,  0 min,  0.045 sec
 * ratio c/w:     0.510 speedup
 SCF:
 * wall-time:     0 d,  0 h,  0 min,  0.064 sec
 *  cpu-time:     0 d,  0 h,  0 min,  0.030 sec
 * ratio c/w:     0.468 speedup

