      -----------------------------------------------------------      
     |                   =====================                   |     
     |                           x T B                           |     
     |                   =====================                   |     
     |                         S. Grimme                         |     
     |          Mulliken Center for Theoretical Chemistry        |     
     |                    University of Bonn                     |     
      -----------------------------------------------------------      

   * xtb version 6.4.1 (unknown) compiled by 'software@adm6701' on 2022-02-17

   xtb is free software: you can redistribute it and/or modify it under
   the terms of the GNU Lesser General Public License as published by
   the Free Software Foundation, either version 3 of the License, or
   (at your option) any later version.
   
   xtb is distributed in the hope that it will be useful,
   but WITHOUT ANY WARRANTY; without even the implied warranty of
   MERCHANTABILITY or FITNESS FOR A PARTICULAR PURPOSE.  See the
   GNU Lesser General Public License for more details.
   
   Cite this work as:
   * C. Bannwarth, E. Caldeweyher, S. Ehlert, A. Hansen, P. Pracht,
     J. Seibert, S. Spicher, S. Grimme, WIREs Comput. Mol. Sci., 2020, 11,
     e01493. DOI: 10.1002/wcms.1493
   
   for GFN2-xTB:
   * C. Bannwarth, S. Ehlert and S. Grimme., J. Chem. Theory Comput., 2019,
     15, 1652-1671. DOI: 10.1021/acs.jctc.8b01176
   for GFN1-xTB:
   * S. Grimme, C. Bannwarth, P. Shushkov, J. Chem. Theory Comput., 2017,
     13, 1989-2009. DOI: 10.1021/acs.jctc.7b00118
   for GFN0-xTB:
   * P. Pracht, E. Caldeweyher, S. Ehlert, S. Grimme, ChemRxiv, 2019, preprint.
     DOI: 10.26434/chemrxiv.8326202.v1
   for GFN-FF:
   * S. Spicher and S. Grimme, Angew. Chem. Int. Ed., 2020, 59, 15665-15673.
     DOI: 10.1002/anie.202004239
   
   for DFT-D4:
   * E. Caldeweyher, C. Bannwarth and S. Grimme, J. Chem. Phys., 2017,
     147, 034112. DOI: 10.1063/1.4993215
   * E. Caldeweyher, S. Ehlert, A. Hansen, H. Neugebauer, S. Spicher,
     C. Bannwarth and S. Grimme, J. Chem. Phys., 2019, 150, 154122.
     DOI: 10.1063/1.5090222
   * E. Caldeweyher, J.-M. Mewes, S. Ehlert and S. Grimme, Phys. Chem. Chem. Phys.
     2020, 22, 8499-8512. DOI: 10.1039/D0CP00502A
   
   for sTDA-xTB:
   * S. Grimme and C. Bannwarth, J. Chem. Phys., 2016, 145, 054103.
     DOI: 10.1063/1.4959605
   
   in the mass-spec context:
   * V. Asgeirsson, C. Bauer and S. Grimme, Chem. Sci., 2017, 8, 4879.
     DOI: 10.1039/c7sc00601b
   * J. Koopman and S. Grimme, ACS Omega 2019, 4, 12, 15120-15133.
     DOI: 10.1021/acsomega.9b02011
   
   for metadynamics refer to:
   * S. Grimme, J. Chem. Theory Comput., 2019, 155, 2847-2862
     DOI: 10.1021/acs.jctc.9b00143
   
   for SPH calculations refer to:
   * S. Spicher and S. Grimme, J. Chem. Theory Comput., 2021, 17, 1701-1714
     DOI: 10.1021/acs.jctc.0c01306
   
   with help from (in alphabetical order)
   P. Atkinson, C. Bannwarth, F. Bohle, G. Brandenburg, E. Caldeweyher
   M. Checinski, S. Dohm, S. Ehlert, S. Ehrlich, I. Gerasimov, J. Koopman
   C. Lavigne, S. Lehtola, F. März, M. Müller, F. Musil, H. Neugebauer
   J. Pisarek, C. Plett, P. Pracht, J. Seibert, P. Shushkov, S. Spicher
   M. Stahn, M. Steiner, T. Strunk, J. Stückrath, T. Rose, and J. Unsleber
   
 * started run on 2023/05/01 at 20:57:32.163     

           -------------------------------------------------
          |                Calculation Setup                |
           -------------------------------------------------

          program call               : xtb /mnt/netapp1/Store_CSIC/home/csic/qoy/jar/test/QDESCP/mol_51_rdkit_conf_1/mol_51_rdkit_conf_1.xyz --pop --wbo --acc 0.2 --gfn 2 --chrg 0 --uhf 0 --etemp 300 --input /mnt/netapp1/Store_CSIC/home/csic/qoy/jar/test/QDESCP/mol_51_rdkit_conf_1/mol_51_rdkit_conf_1_xtb.inp
          hostname                   : login209-18
          coordinate file            : /mnt/netapp1/Store_CSIC/home/csic/qoy/jar/test/QDESCP/mol_51_rdkit_conf_1/mol_51_rdkit_conf_1.xyz
          omp threads                :                     1
          number of atoms            :                    22
          number of electrons        :                    46
          charge                     :                     0
          spin                       :                   0.0
          first test random number   :      0.98421316577965

   ID    Z sym.   atoms
    1    6 C      1-8
    2    1 H      9-22

           -------------------------------------------------
          |                 G F N 2 - x T B                 |
           -------------------------------------------------

        Reference                      10.1021/acs.jctc.8b01176
      * Hamiltonian:
        H0-scaling (s, p, d)           1.850000    2.230000    2.230000
        zeta-weighting                 0.500000
      * Dispersion:
        s8                             2.700000
        a1                             0.520000
        a2                             5.000000
        s9                             5.000000
      * Repulsion:
        kExp                           1.500000    1.000000
        rExp                           1.000000
      * Coulomb:
        alpha                          2.000000
        third order                    shell-resolved
        anisotropic                    true
        a3                             3.000000
        a5                             4.000000
        cn-shift                       1.200000
        cn-exp                         4.000000
        max-rad                        5.000000


          ...................................................
          :                      SETUP                      :
          :.................................................:
          :  # basis functions                  46          :
          :  # atomic orbitals                  46          :
          :  # shells                           30          :
          :  # electrons                        46          :
          :  max. iterations                   250          :
          :  Hamiltonian                  GFN2-xTB          :
          :  restarted?                      false          :
          :  GBSA solvation                  false          :
          :  PC potential                    false          :
          :  electronic temp.          300.0000000     K    :
          :  accuracy                    0.2000000          :
          :  -> integral cutoff          0.3198970E+02      :
          :  -> integral neglect         0.2000000E-08      :
          :  -> SCF convergence          0.2000000E-06 Eh   :
          :  -> wf. convergence          0.2000000E-04 e    :
          :  Broyden damping             0.4000000          :
          ...................................................

 iter      E             dE          RMSdq      gap      omega  full diag
   1    -24.5829412 -0.245829E+02  0.394E+00    7.01       0.0  T
   2    -24.6229812 -0.400400E-01  0.231E+00    6.93       1.0  T
   3    -24.5953480  0.276332E-01  0.143E+00    6.94       1.0  T
   4    -24.6228520 -0.275040E-01  0.629E-01    6.84       1.0  T
   5    -24.6297861 -0.693406E-02  0.796E-02    6.84       1.0  T
   6    -24.6298055 -0.194547E-04  0.312E-02    6.84       1.0  T
   7    -24.6298069 -0.135934E-05  0.113E-02    6.84       1.9  T
   8    -24.6298073 -0.449341E-06  0.139E-03    6.84      15.4  T
   9    -24.6298074 -0.565742E-08  0.632E-04    6.84      33.7  T
  10    -24.6298074 -0.357574E-09  0.179E-04    6.84     119.2  T
  11    -24.6298074 -0.242210E-09  0.536E-05    6.84     397.5  T

   *** convergence criteria satisfied after 11 iterations ***

         #    Occupation            Energy/Eh            Energy/eV
      -------------------------------------------------------------
         1        2.0000           -0.6250628             -17.0088
       ...           ...                  ...                  ...
        17        2.0000           -0.4433539             -12.0643
        18        2.0000           -0.4322370             -11.7618
        19        2.0000           -0.4275951             -11.6355
        20        2.0000           -0.4218746             -11.4798
        21        2.0000           -0.4190365             -11.4026
        22        2.0000           -0.3993336             -10.8664
        23        2.0000           -0.3966123             -10.7924 (HOMO)
        24                         -0.1451369              -3.9494 (LUMO)
        25                         -0.1410594              -3.8384
        26                          0.0454061               1.2356
        27                          0.0683337               1.8595
        28                          0.0976979               2.6585
       ...                                ...                  ...
        46                          1.3979126              38.0391
      -------------------------------------------------------------
                  HL-Gap            0.2514754 Eh            6.8430 eV
             Fermi-level           -0.2708746 Eh           -7.3709 eV

 SCC (total)                   0 d,  0 h,  0 min,  0.066 sec
 SCC setup                      ...        0 min,  0.000 sec (  0.189%)
 Dispersion                     ...        0 min,  0.000 sec (  0.201%)
 classical contributions        ...        0 min,  0.000 sec (  0.045%)
 integral evaluation            ...        0 min,  0.002 sec (  2.756%)
 iterations                     ...        0 min,  0.059 sec ( 89.671%)
 molecular gradient             ...        0 min,  0.005 sec (  7.029%)
 printout                       ...        0 min,  0.000 sec (  0.089%)

         :::::::::::::::::::::::::::::::::::::::::::::::::::::
         ::                     SUMMARY                     ::
         :::::::::::::::::::::::::::::::::::::::::::::::::::::
         :: total energy             -24.202082663404 Eh    ::
         :: gradient norm              0.022495105545 Eh/a0 ::
         :: HOMO-LUMO gap              6.842994676803 eV    ::
         ::.................................................::
         :: SCC energy               -24.629807355084 Eh    ::
         :: -> isotropic ES            0.004707892660 Eh    ::
         :: -> anisotropic ES          0.005552296483 Eh    ::
         :: -> anisotropic XC          0.020791602570 Eh    ::
         :: -> dispersion             -0.013570351369 Eh    ::
         :: repulsion energy           0.427670808611 Eh    ::
         :: add. restraining           0.000000000000 Eh    ::
         :: total charge              -0.000000000000 e     ::
         :::::::::::::::::::::::::::::::::::::::::::::::::::::

           -------------------------------------------------
          |                Property Printout                |
           -------------------------------------------------

    * Orbital Energies and Occupations

         #    Occupation            Energy/Eh            Energy/eV
      -------------------------------------------------------------
         1        2.0000           -0.6250628             -17.0088
       ...           ...                  ...                  ...
        11        2.0000           -0.4962222             -13.5029
        12        2.0000           -0.4901849             -13.3386
        13        2.0000           -0.4785190             -13.0212
        14        2.0000           -0.4705380             -12.8040
        15        2.0000           -0.4624013             -12.5826
        16        2.0000           -0.4541788             -12.3588
        17        2.0000           -0.4433539             -12.0643
        18        2.0000           -0.4322370             -11.7618
        19        2.0000           -0.4275951             -11.6355
        20        2.0000           -0.4218746             -11.4798
        21        2.0000           -0.4190365             -11.4026
        22        2.0000           -0.3993336             -10.8664
        23        2.0000           -0.3966123             -10.7924 (HOMO)
        24                         -0.1451369              -3.9494 (LUMO)
        25                         -0.1410594              -3.8384
        26                          0.0454061               1.2356
        27                          0.0683337               1.8595
        28                          0.0976979               2.6585
        29                          0.1106408               3.0107
        30                          0.1227424               3.3400
        31                          0.1341388               3.6501
        32                          0.1511150               4.1120
        33                          0.1570528               4.2736
        34                          0.1670770               4.5464
       ...                                ...                  ...
        46                          1.3979126              38.0391
      -------------------------------------------------------------
                  HL-Gap            0.2514754 Eh            6.8430 eV
             Fermi-level           -0.2708746 Eh           -7.3709 eV

     #   Z          covCN         q      C6AA      α(0)
     1   6 C        3.750    -0.100    22.465     6.760
     2   6 C        3.800    -0.052    21.508     6.603
     3   6 C        3.801    -0.057    21.600     6.617
     4   6 C        3.800    -0.056    21.590     6.616
     5   6 C        3.802    -0.049    21.452     6.594
     6   6 C        3.802    -0.038    21.249     6.563
     7   6 C        1.964    -0.025    31.742     9.098
     8   6 C        1.908    -0.114    34.290     9.457
     9   1 H        0.924     0.032     2.562     2.503
    10   1 H        0.924     0.031     2.573     2.508
    11   1 H        0.924     0.032     2.557     2.501
    12   1 H        0.924     0.029     2.605     2.524
    13   1 H        0.924     0.027     2.625     2.534
    14   1 H        0.924     0.028     2.610     2.526
    15   1 H        0.924     0.033     2.551     2.498
    16   1 H        0.924     0.033     2.539     2.492
    17   1 H        0.924     0.026     2.639     2.540
    18   1 H        0.924     0.031     2.576     2.510
    19   1 H        0.924     0.027     2.626     2.534
    20   1 H        0.924     0.049     2.327     2.385
    21   1 H        0.924     0.045     2.381     2.413
    22   1 H        0.927     0.067     2.116     2.274

 Mol. C6AA /au·bohr⁶  :       3784.962943
 Mol. C8AA /au·bohr⁸  :      83343.121364
 Mol. α(0) /au        :         93.051110


Wiberg/Mayer (AO) data.
largest (>0.10) Wiberg bond orders for each atom

 ---------------------------------------------------------------------------
     #   Z sym  total        # sym  WBO       # sym  WBO       # sym  WBO
 ---------------------------------------------------------------------------
     1   6 C    3.997 --     2 C    1.020     9 H    0.988    11 H    0.988
                            10 H    0.987
     2   6 C    3.998 --     1 C    1.020     3 C    1.007    12 H    0.978
                            13 H    0.978
     3   6 C    3.997 --     4 C    1.008     2 C    1.007    14 H    0.977
                            15 H    0.975
     4   6 C    3.997 --     3 C    1.008     5 C    1.007    16 H    0.977
                            17 H    0.977
     5   6 C    3.997 --     4 C    1.007     6 C    0.991    18 H    0.978
                            19 H    0.976
     6   6 C    3.997 --     7 C    1.045     5 C    0.991    21 H    0.957
                            20 H    0.955
     7   6 C    3.977 --     8 C    2.902     6 C    1.045
     8   6 C    3.974 --     7 C    2.902    22 H    0.971
     9   1 H    0.999 --     1 C    0.988
    10   1 H    0.999 --     1 C    0.987
    11   1 H    0.999 --     1 C    0.988
    12   1 H    0.999 --     2 C    0.978
    13   1 H    0.999 --     2 C    0.978
    14   1 H    0.999 --     3 C    0.977
    15   1 H    0.999 --     3 C    0.975
    16   1 H    0.999 --     4 C    0.977
    17   1 H    0.999 --     4 C    0.977
    18   1 H    0.999 --     5 C    0.978
    19   1 H    0.999 --     5 C    0.976
    20   1 H    0.998 --     6 C    0.955
    21   1 H    0.998 --     6 C    0.957
    22   1 H    0.995 --     8 C    0.971
 ---------------------------------------------------------------------------

Topologies differ in total number of bonds
Writing topology from bond orders to xtbtopo.mol

molecular dipole:
                 x           y           z       tot (Debye)
 q only:        0.174      -0.161       0.101
   full:        0.172      -0.162       0.112       0.665
molecular quadrupole (traceless):
                xx          xy          yy          xz          yz          zz
 q only:       -1.618       0.184       1.720      -0.881      -0.181      -0.102
  q+dip:       -1.888      -2.889       2.603       1.092      -2.060      -0.715
   full:       -1.786      -1.092       2.135      -0.027      -1.001      -0.349


           -------------------------------------------------
          | TOTAL ENERGY              -24.202082663404 Eh   |
          | GRADIENT NORM               0.022495105545 Eh/α |
          | HOMO-LUMO GAP               6.842994676803 eV   |
           -------------------------------------------------

------------------------------------------------------------------------
 * finished run on 2023/05/01 at 20:57:32.257     
------------------------------------------------------------------------
 total:
 * wall-time:     0 d,  0 h,  0 min,  0.094 sec
 *  cpu-time:     0 d,  0 h,  0 min,  0.042 sec
 * ratio c/w:     0.450 speedup
 SCF:
 * wall-time:     0 d,  0 h,  0 min,  0.066 sec
 *  cpu-time:     0 d,  0 h,  0 min,  0.027 sec
 * ratio c/w:     0.413 speedup

